 +-------------------------------------------------+
 |                                                 |
 |      CCC   AA    SSS  TTTTT  EEEEE  PPPP        |
 |     C     A  A  S       T    E      P   P       |
 |     C     AAAA   SS     T    EEE    PPPP        |
 |     C     A  A     S    T    E      P           |
 |      CCC  A  A  SSS     T    EEEEE  P           |
 |                                                 |
 +-------------------------------------------------+
 |                                                 |
 | Welcome to Academic Release CASTEP version 19.11|          
 | Ab Initio Total Energy Program                  |
 |                                                 |
 | Authors:                                        |
 | M. Segall, M. Probert, C. Pickard, P. Hasnip,   |
 | S. Clark, K. Refson, J. R. Yates, M. Payne      |
 |                                                 |
 | Contributors:                                   |
 | P. Lindan, P. Haynes, J. White, V. Milman,      |
 | N. Govind, M. Gibson, P. Tulip, V. Cocula,      |
 | B. Montanari, D. Quigley, M. Glover,            |
 | L. Bernasconi, A. Perlov, M. Plummer,           |
 | E. McNellis, J. Meyer, J. Gale, D. Jochym       |
 | J. Aarons, B. Walker, R. Gillen, D. Jones       |
 | T. Green, I. J. Bush, C. J. Armstrong,          |
 | E. J. Higgins, E. L. Brown, M. S. McFly,        |
 | J. Wilkins, B-C. Shih, P. J. P. Byrne           |
 |                                                 |
 | Copyright (c) 2000 - 2018                       |
 |                                                 |
 |     Distributed under the terms of an           |
 |     Agreement between the United Kingdom        |
 |     Car-Parrinello (UKCP) Consortium,           |
 |     Daresbury Laboratory and Accelrys, Inc.     |
 |                                                 |
 | Please cite                                     |
 |                                                 |
 |     "First principles methods using CASTEP"     |
 |                                                 |
 |         Zeitschrift fuer Kristallographie       |
 |           220(5-6) pp. 567-570 (2005)           |
 |                                                 |
 | S. J. Clark, M. D. Segall, C. J. Pickard,       |
 | P. J. Hasnip, M. J. Probert, K. Refson,         |
 | M. C. Payne                                     |
 |                                                 |
 |       in all publications arising from          |
 |              your use of CASTEP                 |
 |                                                 |
 +-------------------------------------------------+
 |                                                 |
 |              http://www.castep.org              |
 |                                                 |
 +-------------------------------------------------+
 
 
 
 Compiled for linux_x86_64_ifort18 on Fri, 05 Jul 2019 15:43:56 +0100
 from code version 
 0a9e5daac2f4+ Castep191_branch Wed, 03 Jul 2019 08:43:28 +0000
 Compiler: Intel Fortran 18.0.3.222; Optimisation: fast
 MATHLIBS: Intel MKL(2018.0.3) (LAPACK version 3.7.0)
 FFT Lib : default
 Fundamental constants values: CODATA 2014
 
 Run started: Tue, 17 Nov 2020 15:10:17 +0000
 
 Atomic calculation performed for Si: 1s2 2s2 2p6 3s2 3p2
 
 Converged in 55 iterations to an ae energy of -7859.183 eV
 
   ============================================================                
   | Pseudopotential Report - Date of generation 17-11-2020   |                
   ------------------------------------------------------------                
   | Element: Si Ionic charge:  4.00 Level of theory: LDA     |                
   | Atomic Solver: Koelling-Harmon                           |                
   |                                                          |                
   |               Reference Electronic Structure             |                
   |         Orbital         Occupation         Energy        |                
   |            3s              2.000           -0.400        |                
   |            3p              2.000           -0.153        |                
   |                                                          |                
   |                 Pseudopotential Definition               |                
   |        Beta     l      e      Rc     scheme   norm       |                
   |          1      0   -0.400   1.797     qc      0         |                
   |          2      0    0.250   1.797     qc      0         |                
   |          3      1   -0.153   1.797     qc      0         |                
   |          4      1    0.250   1.797     qc      0         |                
   |          5      2    0.000   1.797     qc      0         |                
   |          6      2    0.250   1.797     qc      0         |                
   |         loc     3    0.000   1.797     pn      0         |                
   |                                                          |                
   | Augmentation charge Rinner = 1.255                       |                
   | Partial core correction Rc = 1.255                       |                
   ------------------------------------------------------------                
   | "3|1.8|5|6|7|30:31:32"                                   |                
   ------------------------------------------------------------                
   |      Author: Chris J. Pickard, Cambridge University      |                
   ============================================================                
 
 Atomic calculation performed for H:mu: 1s1
 
 Converged in 41 iterations to an ae energy of -12.134 eV
 
   ============================================================                
   | Pseudopotential Report - Date of generation 17-11-2020   |                
   ------------------------------------------------------------                
   | Element: H Ionic charge:  1.00 Level of theory: LDA      |                
   | Atomic Solver: Koelling-Harmon                           |                
   |                                                          |                
   |               Reference Electronic Structure             |                
   |         Orbital         Occupation         Energy        |                
   |            1s              1.000           -0.234        |                
   |                                                          |                
   |                 Pseudopotential Definition               |                
   |        Beta     l      e      Rc     scheme   norm       |                
   |          1      0   -0.234   0.599     qc      0         |                
   |          2      0    0.250   0.599     qc      0         |                
   |         loc     1    0.000   0.599     pn      0         |                
   |                                                          |                
   | Augmentation charge Rinner = 0.421                       |                
   | No partial core correction                               |                
   ------------------------------------------------------------                
   | "1|0.6|13|15|17|10(qc=8)"                                |                
   ------------------------------------------------------------                
   |      Author: Chris J. Pickard, Cambridge University      |                
   ============================================================                
 
 Pseudo atomic calculation performed for Si 3s2 3p2
 
 Converged in 21 iterations to a total energy of -162.9266 eV
 
 Pseudo atomic calculation performed for H:mu 1s1
 
 Converged in 18 iterations to a total energy of -11.6786 eV
 Calculation parallelised over 8 processes.
 Data is distributed by G-vector(8-way)

 ************************************ Title ************************************
 

 ***************************** General Parameters ******************************
  
 output verbosity                               : normal  (1)
 write checkpoint data to                       : ./castep-pymuonsuite-test-data/muon-airss-out-castep/castep/Si2_7/Si2_7.check
 type of calculation                            : geometry optimization
 stress calculation                             : off
 density difference calculation                 : off
 electron localisation func (ELF) calculation   : off
 Hirshfeld analysis                             : off
 unlimited duration calculation
 timing information                             : on
 memory usage estimate                          : on
 write extra output files                       : on
 write final potential to formatted file        : off
 write final density to formatted file          : on
 write structure in CELL formatted file         : on
 write BibTeX reference list                    : on
 write OTFG pseudopotential files               : on
 write electrostatic potential file             : on
 write bands file                               : on
 checkpoint writing                             : both castep_bin and check files
  
 output         length unit                     : A
 output           mass unit                     : amu
 output           time unit                     : ps
 output         charge unit                     : e
 output           spin unit                     : hbar/2
 output         energy unit                     : eV
 output          force unit                     : eV/A
 output       velocity unit                     : A/ps
 output       pressure unit                     : GPa
 output     inv_length unit                     : 1/A
 output      frequency unit                     : cm-1
 output force constant unit                     : eV/A**2
 output         volume unit                     : A**3
 output   IR intensity unit                     : (D/A)**2/amu
 output         dipole unit                     : D
 output         efield unit                     : eV/A/e
 output        entropy unit                     : J/mol/K
  
 wavefunctions paging                           : none
 random number generator seed                   : randomised (151017404)
 data distribution                              : optimal for this architecture
 optimization strategy                          : maximize speed(+++)

 *********************** Exchange-Correlation Parameters ***********************
  
 using functional                               : Local Density Approximation
 relativistic treatment                         : Koelling-Harmon
 DFT+D: Semi-empirical dispersion correction    : off

 ************************* Pseudopotential Parameters **************************
  
 pseudopotential representation                 : reciprocal space
 <beta|phi> representation                      : reciprocal space
 spin-orbit coupling                            : off

 **************************** Basis Set Parameters *****************************
  
 plane wave basis set cut-off                   :   150.0000   eV
 size of standard grid                          :     2.0000
 size of   fine   gmax                          :    12.5491   1/A
 finite basis set correction                    : none

 **************************** Electronic Parameters ****************************
  
 number of  electrons                           :  8.000    
 net charge of system                           : +1.000    
 treating system as non-spin-polarized
 number of bands                                :          4

 ********************* Electronic Minimization Parameters **********************
  
 Method: Treating system as non-metallic,
         and number of  SD  steps               :          1
         and number of  CG  steps               :          4
  
 total energy / atom convergence tol.           : 0.1000E-07   eV
 eigen-energy convergence tolerance             : 0.7500E-08   eV
 max force / atom convergence tol.              : ignored
 convergence tolerance window                   :          3   cycles
 max. number of SCF cycles                      :        200
 periodic dipole correction                     : NONE

 ************************** Density Mixing Parameters **************************
  
 density-mixing scheme                          : Broyden
 max. length of mixing history                  :         20
 charge density mixing amplitude                : 0.8000    
 cut-off energy for mixing                      :  150.0       eV

 *********************** Population Analysis Parameters ************************
  
 Population analysis with cutoff                :  3.000       A
 Population analysis output                     : summary and pdos components

 ********************** Geometry Optimization Parameters ***********************
  
 optimization method                            : LBFGS
 max. no. of LBFGS updates                      : unbounded
 variable cell method                           : fixed basis quality
 max. number of steps                           :        300
 estimated bulk modulus                         :  500.0       GPa
 estimated <frequency>                          :  1668.       cm-1
 geom line minimiser                            : on
 with line minimiser tolerance                  :     0.4000
 total energy convergence tolerance             : 0.2000E-04   eV/atom
        max ionic |force| tolerance             : 0.5000E-01   eV/A
 max ionic |displacement| tolerance             : 0.1000E-02   A
   max |stress component| tolerance             : 0.1000       GPa
 convergence tolerance window                   :          2   steps
 backup results every                           :          5   steps
 write geom trajectory file                     : on

 *******************************************************************************
  
 
                           -------------------------------
                                      Unit Cell
                           -------------------------------
        Real Lattice(A)                      Reciprocal Lattice(1/A)
     2.6954640     2.6954640     0.0000000        1.165510893   1.165510893  -1.165510893
     2.6954640     0.0000000     2.6954640        1.165510893  -1.165510893   1.165510893
     0.0000000     2.6954640     2.6954640       -1.165510893   1.165510893   1.165510893
 
                       Lattice parameters(A)       Cell Angles
                    a =      3.811962          alpha =   60.000000
                    b =      3.811962          beta  =   60.000000
                    c =      3.811962          gamma =   60.000000
 
                       Current cell volume =            39.167928       A**3
                                   density =             1.459841   AMU/A**3
                                           =             2.424123     g/cm^3
 
                           -------------------------------
                                     Cell Contents
                           -------------------------------
                         Total number of ions in cell =    3
                      Total number of species in cell =    2
                        Max number of any one species =    2
 
            xxxxxxxxxxxxxxxxxxxxxxxxxxxxxxxxxxxxxxxxxxxxxxxxxxxxxxxxxxxx
            x  Element    Atom        Fractional coordinates of atoms  x
            x            Number           u          v          w      x
            x----------------------------------------------------------x
            x  Si           1         0.000000   0.000000   0.000000   x 
            x  Si           2         0.250000   0.250000   0.250000   x 
            x  H:mu         1         0.773647   0.001854   0.974200   x 
            xxxxxxxxxxxxxxxxxxxxxxxxxxxxxxxxxxxxxxxxxxxxxxxxxxxxxxxxxxxx
 
 
                         No user defined ionic velocities
 
                           -------------------------------
                                   Details of Species
                           -------------------------------
 
                               Mass of species in AMU
                                    Si   28.0855000
                                    H:mu    0.1134289
 
                          Electric Quadrupole Moment (Barn)
                                    Si    1.0000000 No Isotope Defined
                                    H:mu    0.0028600 Isotope  2
 
                          Files used for pseudopotentials:
                                    Si 3|1.8|5|6|7|30:31:32
                                    H:mu 1|0.6|13|15|17|10(qc=8)
 
                           -------------------------------
                              k-Points For BZ Sampling
                           -------------------------------
                       MP grid size for SCF calculation is  1  1  1
                            with an offset of   0.000  0.000  0.000
                       Number of kpoints used =             1
 
                           -------------------------------
                               Symmetry and Constraints
                           -------------------------------
 
                      Maximum deviation from symmetry =  0.00000         ANG
 
                      Number of symmetry operations   =           1
                      Number of ionic constraints     =           3
                      Point group of crystal =     1: C1, 1, 1
                      Space group of crystal =     1: P1, P 1
 
             Set iprint > 1 for details on symmetry rotations/translations
 
                         Centre of mass is constrained
             Set iprint > 1 for details of linear ionic constraints
 
                         Number of cell constraints= 6
                         Cell constraints are:  0 0 0 0 0 0
 
                         External pressure/stress (GPa)
                          0.00000   0.00000   0.00000
                                    0.00000   0.00000
                                              0.00000
  
+---------------- MEMORY AND SCRATCH DISK ESTIMATES PER PROCESS --------------+
|                                                     Memory          Disk    |
| Baseline code, static data and system overhead      464.0 MB         0.0 MB |
| BLAS internal memory storage                          0.0 MB         0.0 MB |
| Model and support data                               25.0 MB         0.0 MB |
| Electronic energy minimisation requirements           0.2 MB         0.0 MB |
| Force calculation requirements                        0.1 MB         0.0 MB |
|                                               ----------------------------- |
| Approx. total storage required per process          489.2 MB         0.0 MB |
|                                                                             |
| Requirements will fluctuate during execution and may exceed these estimates |
+-----------------------------------------------------------------------------+
Calculating total energy with cut-off of  150.000 eV.
------------------------------------------------------------------------ <-- SCF
SCF loop      Energy                           Energy gain       Timer   <-- SCF
                                               per atom          (sec)   <-- SCF
------------------------------------------------------------------------ <-- SCF
Initial  -8.57873384E+001                                          5.70  <-- SCF
      1  -3.02466990E+002                    7.22265507E+001       5.70  <-- SCF
      2  -3.36341339E+002                    1.12914494E+001       5.71  <-- SCF
      3  -3.37070947E+002                    2.43202871E-001       5.71  <-- SCF
      4  -3.34156016E+002                   -9.71643925E-001       5.72  <-- SCF
      5  -3.33047528E+002                   -3.69495883E-001       5.73  <-- SCF
      6  -3.32981271E+002                   -2.20857557E-002       5.74  <-- SCF
      7  -3.32973588E+002                   -2.56094107E-003       5.75  <-- SCF
      8  -3.32994666E+002                    7.02615033E-003       5.76  <-- SCF
      9  -3.32990336E+002                   -1.44347546E-003       5.77  <-- SCF
     10  -3.33139687E+002                    4.97836948E-002       5.78  <-- SCF
     11  -3.33558377E+002                    1.39563352E-001       5.79  <-- SCF
     12  -3.33352126E+002                   -6.87504351E-002       5.80  <-- SCF
     13  -3.33204263E+002                   -4.92877000E-002       5.81  <-- SCF
     14  -3.33124165E+002                   -2.66992698E-002       5.82  <-- SCF
     15  -3.33056228E+002                   -2.26456604E-002       5.82  <-- SCF
     16  -3.33007317E+002                   -1.63037232E-002       5.84  <-- SCF
     17  -3.32992459E+002                   -4.95258322E-003       5.85  <-- SCF
     18  -3.32981185E+002                   -3.75788655E-003       5.85  <-- SCF
     19  -3.32990413E+002                    3.07577427E-003       5.87  <-- SCF
     20  -3.32950597E+002                   -1.32716811E-002       5.87  <-- SCF
     21  -3.33127097E+002                    5.88331883E-002       5.89  <-- SCF
     22  -3.33043882E+002                   -2.77382746E-002       5.90  <-- SCF
     23  -3.32980832E+002                   -2.10165967E-002       5.91  <-- SCF
     24  -3.32987573E+002                    2.24693375E-003       5.92  <-- SCF
     25  -3.32982163E+002                   -1.80329607E-003       5.93  <-- SCF
     26  -3.32982420E+002                    8.55507135E-005       5.94  <-- SCF
     27  -3.32985542E+002                    1.04066523E-003       5.95  <-- SCF
     28  -3.33199174E+002                    7.12105711E-002       5.97  <-- SCF
     29  -3.33084922E+002                   -3.80840037E-002       5.98  <-- SCF
     30  -3.32999550E+002                   -2.84570779E-002       5.99  <-- SCF
     31  -3.33012671E+002                    4.37368345E-003       6.00  <-- SCF
     32  -3.33021898E+002                    3.07554532E-003       6.01  <-- SCF
     33  -3.32990023E+002                   -1.06249767E-002       6.02  <-- SCF
     34  -3.32994824E+002                    1.60011331E-003       6.04  <-- SCF
     35  -3.32984094E+002                   -3.57652152E-003       6.05  <-- SCF
     36  -3.32987494E+002                    1.13329886E-003       6.06  <-- SCF
     37  -3.32988109E+002                    2.05184933E-004       6.07  <-- SCF
     38  -3.32988180E+002                    2.34585201E-005       6.08  <-- SCF
     39  -3.32996802E+002                    2.87406523E-003       6.10  <-- SCF
     40  -3.32988476E+002                   -2.77519800E-003       6.11  <-- SCF
     41  -3.32984624E+002                   -1.28426538E-003       6.12  <-- SCF
     42  -3.32986903E+002                    7.59867555E-004       6.13  <-- SCF
     43  -3.32993456E+002                    2.18417794E-003       6.14  <-- SCF
     44  -3.32979480E+002                   -4.65860264E-003       6.15  <-- SCF
     45  -3.32973467E+002                   -2.00428222E-003       6.16  <-- SCF
     46  -3.33022585E+002                    1.63725298E-002       6.17  <-- SCF
     47  -3.33034571E+002                    3.99529765E-003       6.18  <-- SCF
     48  -3.31959095E+002                   -3.58491906E-001       6.19  <-- SCF
     49  -3.36868755E+002                    1.63655345E+000       6.21  <-- SCF
     50  -3.34308387E+002                   -8.53456092E-001       6.21  <-- SCF
     51  -3.33000028E+002                   -4.36119645E-001       6.22  <-- SCF
     52  -3.32970191E+002                   -9.94581377E-003       6.23  <-- SCF
     53  -3.33244880E+002                    9.15631010E-002       6.25  <-- SCF
     54  -3.32981010E+002                   -8.79565776E-002       6.26  <-- SCF
     55  -3.33242774E+002                    8.72546945E-002       6.27  <-- SCF
     56  -3.33044369E+002                   -6.61350025E-002       6.28  <-- SCF
     57  -3.33008027E+002                   -1.21141004E-002       6.30  <-- SCF
     58  -3.33014593E+002                    2.18856393E-003       6.31  <-- SCF
     59  -3.32986996E+002                   -9.19877853E-003       6.32  <-- SCF
     60  -3.32989330E+002                    7.78049492E-004       6.33  <-- SCF
     61  -3.33003536E+002                    4.73527402E-003       6.34  <-- SCF
     62  -3.33012602E+002                    3.02196512E-003       6.35  <-- SCF
     63  -3.33004993E+002                   -2.53633209E-003       6.36  <-- SCF
     64  -3.32995538E+002                   -3.15156728E-003       6.37  <-- SCF
     65  -3.32978558E+002                   -5.66017035E-003       6.38  <-- SCF
     66  -3.33172707E+002                    6.47162612E-002       6.40  <-- SCF
     67  -3.33138360E+002                   -1.14487894E-002       6.40  <-- SCF
     68  -3.33149680E+002                    3.77306454E-003       6.42  <-- SCF
     69  -3.33034173E+002                   -3.85023019E-002       6.43  <-- SCF
     70  -3.32981749E+002                   -1.74744730E-002       6.44  <-- SCF
     71  -3.32989936E+002                    2.72896952E-003       6.45  <-- SCF
     72  -3.33008430E+002                    6.16457834E-003       6.46  <-- SCF
     73  -3.33198896E+002                    6.34886373E-002       6.47  <-- SCF
     74  -3.33486022E+002                    9.57087556E-002       6.49  <-- SCF
     75  -3.33783263E+002                    9.90802145E-002       6.50  <-- SCF
     76  -3.33592490E+002                   -6.35909036E-002       6.51  <-- SCF
     77  -3.33237669E+002                   -1.18273585E-001       6.52  <-- SCF
     78  -3.33056914E+002                   -6.02517907E-002       6.53  <-- SCF
     79  -3.32948027E+002                   -3.62956664E-002       6.54  <-- SCF
     80  -3.33660029E+002                    2.37334022E-001       6.55  <-- SCF
     81  -3.33910720E+002                    8.35636345E-002       6.56  <-- SCF
     82  -3.33646726E+002                   -8.79979736E-002       6.58  <-- SCF
     83  -3.33906155E+002                    8.64762172E-002       6.58  <-- SCF
     84  -3.33386678E+002                   -1.73158769E-001       6.60  <-- SCF
     85  -3.33238799E+002                   -4.92930343E-002       6.61  <-- SCF
     86  -3.33278984E+002                    1.33949277E-002       6.62  <-- SCF
     87  -3.33171701E+002                   -3.57609241E-002       6.63  <-- SCF
     88  -3.33183893E+002                    4.06393294E-003       6.64  <-- SCF
     89  -3.33237909E+002                    1.80052368E-002       6.65  <-- SCF
     90  -3.33114685E+002                   -4.10744956E-002       6.66  <-- SCF
     91  -3.33029028E+002                   -2.85524217E-002       6.67  <-- SCF
     92  -3.32987995E+002                   -1.36777632E-002       6.68  <-- SCF
     93  -3.32993304E+002                    1.76987080E-003       6.69  <-- SCF
     94  -3.33181099E+002                    6.25983295E-002       6.71  <-- SCF
     95  -3.32825833E+002                   -1.18421951E-001       6.72  <-- SCF
     96  -3.33551469E+002                    2.41878486E-001       6.73  <-- SCF
     97  -3.33465298E+002                   -2.87236730E-002       6.74  <-- SCF
     98  -3.33585736E+002                    4.01460569E-002       6.75  <-- SCF
     99  -3.33455935E+002                   -4.32671239E-002       6.76  <-- SCF
    100  -3.33128671E+002                   -1.09087883E-001       6.77  <-- SCF
    101  -3.32986976E+002                   -4.72316721E-002       6.78  <-- SCF
    102  -3.33319192E+002                    1.10738576E-001       6.79  <-- SCF
    103  -3.33379967E+002                    2.02583577E-002       6.80  <-- SCF
    104  -3.33779872E+002                    1.33301685E-001       6.81  <-- SCF
    105  -3.33951144E+002                    5.70906943E-002       6.82  <-- SCF
    106  -3.34548885E+002                    1.99246981E-001       6.84  <-- SCF
    107  -3.33484196E+002                   -3.54896374E-001       6.85  <-- SCF
    108  -3.33164316E+002                   -1.06626485E-001       6.86  <-- SCF
    109  -3.33111951E+002                   -1.74549727E-002       6.87  <-- SCF
    110  -3.33090885E+002                   -7.02196124E-003       6.88  <-- SCF
    111  -3.33139318E+002                    1.61441991E-002       6.89  <-- SCF
    112  -3.33117247E+002                   -7.35690266E-003       6.90  <-- SCF
    113  -3.33021774E+002                   -3.18243550E-002       6.92  <-- SCF
    114  -3.33048397E+002                    8.87437105E-003       6.93  <-- SCF
    115  -3.33515581E+002                    1.55727940E-001       6.94  <-- SCF
    116  -3.32979898E+002                   -1.78560903E-001       6.95  <-- SCF
    117  -3.33034141E+002                    1.80808480E-002       6.96  <-- SCF
    118  -3.33003898E+002                   -1.00809623E-002       6.97  <-- SCF
    119  -3.32979943E+002                   -7.98497522E-003       6.98  <-- SCF
    120  -3.32980109E+002                    5.53809572E-005       6.99  <-- SCF
    121  -3.32977042E+002                   -1.02253174E-003       7.01  <-- SCF
    122  -3.32973553E+002                   -1.16296463E-003       7.02  <-- SCF
    123  -3.33007077E+002                    1.11745870E-002       7.03  <-- SCF
    124  -3.32991917E+002                   -5.05326647E-003       7.04  <-- SCF
    125  -3.33663097E+002                    2.23726578E-001       7.05  <-- SCF
    126  -3.33393337E+002                   -8.99197017E-002       7.06  <-- SCF
    127  -3.33534326E+002                    4.69961527E-002       7.07  <-- SCF
    128  -3.34054887E+002                    1.73520413E-001       7.08  <-- SCF
    129  -3.33789957E+002                   -8.83098752E-002       7.10  <-- SCF
    130  -3.34544829E+002                    2.51623678E-001       7.11  <-- SCF
    131  -3.33315995E+002                   -4.09611281E-001       7.11  <-- SCF
    132  -3.33012737E+002                   -1.01086035E-001       7.13  <-- SCF
    133  -3.32970358E+002                   -1.41261487E-002       7.14  <-- SCF
    134  -3.33091441E+002                    4.03610666E-002       7.15  <-- SCF
    135  -3.33004281E+002                   -2.90533314E-002       7.16  <-- SCF
    136  -3.32852775E+002                   -5.05021839E-002       7.17  <-- SCF
    137  -3.33512686E+002                    2.19970465E-001       7.18  <-- SCF
    138  -3.33150649E+002                   -1.20679100E-001       7.19  <-- SCF
    139  -3.33063913E+002                   -2.89120100E-002       7.20  <-- SCF
    140  -3.32989113E+002                   -2.49332902E-002       7.21  <-- SCF
    141  -3.33006232E+002                    5.70646156E-003       7.22  <-- SCF
    142  -3.33011991E+002                    1.91965138E-003       7.23  <-- SCF
    143  -3.33024577E+002                    4.19527516E-003       7.25  <-- SCF
    144  -3.33002819E+002                   -7.25270978E-003       7.26  <-- SCF
    145  -3.32983135E+002                   -6.56142627E-003       7.27  <-- SCF
    146  -3.32979269E+002                   -1.28871201E-003       7.28  <-- SCF
    147  -3.32969664E+002                   -3.20167721E-003       7.28  <-- SCF
    148  -3.33334870E+002                    1.21735615E-001       7.30  <-- SCF
    149  -3.33411950E+002                    2.56933352E-002       7.31  <-- SCF
    150  -3.36941121E+002                    1.17639030E+000       7.32  <-- SCF
    151  -3.34108223E+002                   -9.44299527E-001       7.32  <-- SCF
    152  -3.34665923E+002                    1.85900205E-001       7.33  <-- SCF
    153  -3.35113665E+002                    1.49247183E-001       7.35  <-- SCF
    154  -3.33542810E+002                   -5.23618194E-001       7.36  <-- SCF
    155  -3.33871461E+002                    1.09550373E-001       7.37  <-- SCF
    156  -3.32974013E+002                   -2.99149363E-001       7.38  <-- SCF
    157  -3.33160801E+002                    6.22624942E-002       7.39  <-- SCF
    158  -3.33083932E+002                   -2.56228470E-002       7.40  <-- SCF
    159  -3.33001542E+002                   -2.74633688E-002       7.41  <-- SCF
    160  -3.33191725E+002                    6.33942732E-002       7.42  <-- SCF
    161  -3.33069664E+002                   -4.06869397E-002       7.43  <-- SCF
    162  -3.33033378E+002                   -1.20954369E-002       7.45  <-- SCF
    163  -3.33010896E+002                   -7.49381094E-003       7.46  <-- SCF
    164  -3.32983308E+002                   -9.19611545E-003       7.47  <-- SCF
    165  -3.33234189E+002                    8.36270668E-002       7.48  <-- SCF
    166  -3.33108678E+002                   -4.18372465E-002       7.49  <-- SCF
    167  -3.33215485E+002                    3.56023491E-002       7.50  <-- SCF
    168  -3.33038276E+002                   -5.90694727E-002       7.51  <-- SCF
    169  -3.33082484E+002                    1.47360929E-002       7.53  <-- SCF
    170  -3.33018305E+002                   -2.13933141E-002       7.54  <-- SCF
    171  -3.32965563E+002                   -1.75806117E-002       7.54  <-- SCF
    172  -3.33344393E+002                    1.26276808E-001       7.56  <-- SCF
    173  -3.33059073E+002                   -9.51066704E-002       7.57  <-- SCF
    174  -3.34504954E+002                    4.81960389E-001       7.58  <-- SCF
    175  -3.33745008E+002                   -2.53315366E-001       7.59  <-- SCF
    176  -3.33030935E+002                   -2.38024465E-001       7.60  <-- SCF
    177  -3.33149988E+002                    3.96844481E-002       7.61  <-- SCF
    178  -3.32927056E+002                   -7.43106448E-002       7.62  <-- SCF
    179  -3.33955245E+002                    3.42729611E-001       7.63  <-- SCF
    180  -3.33604962E+002                   -1.16760986E-001       7.64  <-- SCF
    181  -3.33046680E+002                   -1.86093873E-001       7.65  <-- SCF
    182  -3.33099404E+002                    1.75746179E-002       7.66  <-- SCF
    183  -3.32977754E+002                   -4.05501013E-002       7.68  <-- SCF
    184  -3.32987149E+002                    3.13163520E-003       7.69  <-- SCF
    185  -3.33028709E+002                    1.38534921E-002       7.70  <-- SCF
    186  -3.33010615E+002                   -6.03134366E-003       7.71  <-- SCF
    187  -3.32985296E+002                   -8.43968636E-003       7.72  <-- SCF
    188  -3.32966530E+002                   -6.25554426E-003       7.74  <-- SCF
    189  -3.33028885E+002                    2.07850171E-002       7.75  <-- SCF
    190  -3.33004649E+002                   -8.07861427E-003       7.76  <-- SCF
    191  -3.33020268E+002                    5.20632122E-003       7.77  <-- SCF
    192  -3.33007566E+002                   -4.23380039E-003       7.78  <-- SCF
    193  -3.33030765E+002                    7.73287167E-003       7.80  <-- SCF
    194  -3.33134134E+002                    3.44563031E-002       7.81  <-- SCF
    195  -3.33075615E+002                   -1.95063611E-002       7.82  <-- SCF
    196  -3.32987130E+002                   -2.94948946E-002       7.83  <-- SCF
    197  -3.33257498E+002                    9.01224530E-002       7.84  <-- SCF
    198  -3.32849736E+002                   -1.35920362E-001       7.85  <-- SCF
    199  -3.36311026E+002                    1.15376310E+000       7.86  <-- SCF
    200  -3.33929104E+002                   -7.93973770E-001       7.87  <-- SCF
------------------------------------------------------------------------ <-- SCF
 *Warning* max. SCF cycles performed but system has not reached the groundstate.
  
Current total energy =  -333.9291044414     eV
(energy not corrected for finite basis set)
 
  ****************************************************************************
  Warning: electronic minimisation did not converge when finding ground state.
  ****************************************************************************
  Writing checkpoint file...

Writing analysis data to ./castep-pymuonsuite-test-data/muon-airss-out-castep/castep/Si2_7/Si2_7.castep_bin

Writing model to ./castep-pymuonsuite-test-data/muon-airss-out-castep/castep/Si2_7/Si2_7.check
  
Overall parallel efficiency rating: Terrible (26%)                              
  
Data was distributed by:-
G-vector (8-way); efficiency rating: Terrible (27%)                             
  
Parallel notes:
1) Calculation only took 7.9 s, so efficiency estimates may be inaccurate.      
