 +-------------------------------------------------+
 |                                                 |
 |      CCC   AA    SSS  TTTTT  EEEEE  PPPP        |
 |     C     A  A  S       T    E      P   P       |
 |     C     AAAA   SS     T    EEE    PPPP        |
 |     C     A  A     S    T    E      P           |
 |      CCC  A  A  SSS     T    EEEEE  P           |
 |                                                 |
 +-------------------------------------------------+
 |                                                 |
 | Welcome to Academic Release CASTEP version 19.11|          
 | Ab Initio Total Energy Program                  |
 |                                                 |
 | Authors:                                        |
 | M. Segall, M. Probert, C. Pickard, P. Hasnip,   |
 | S. Clark, K. Refson, J. R. Yates, M. Payne      |
 |                                                 |
 | Contributors:                                   |
 | P. Lindan, P. Haynes, J. White, V. Milman,      |
 | N. Govind, M. Gibson, P. Tulip, V. Cocula,      |
 | B. Montanari, D. Quigley, M. Glover,            |
 | L. Bernasconi, A. Perlov, M. Plummer,           |
 | E. McNellis, J. Meyer, J. Gale, D. Jochym       |
 | J. Aarons, B. Walker, R. Gillen, D. Jones       |
 | T. Green, I. J. Bush, C. J. Armstrong,          |
 | E. J. Higgins, E. L. Brown, M. S. McFly,        |
 | J. Wilkins, B-C. Shih, P. J. P. Byrne           |
 |                                                 |
 | Copyright (c) 2000 - 2018                       |
 |                                                 |
 |     Distributed under the terms of an           |
 |     Agreement between the United Kingdom        |
 |     Car-Parrinello (UKCP) Consortium,           |
 |     Daresbury Laboratory and Accelrys, Inc.     |
 |                                                 |
 | Please cite                                     |
 |                                                 |
 |     "First principles methods using CASTEP"     |
 |                                                 |
 |         Zeitschrift fuer Kristallographie       |
 |           220(5-6) pp. 567-570 (2005)           |
 |                                                 |
 | S. J. Clark, M. D. Segall, C. J. Pickard,       |
 | P. J. Hasnip, M. J. Probert, K. Refson,         |
 | M. C. Payne                                     |
 |                                                 |
 |       in all publications arising from          |
 |              your use of CASTEP                 |
 |                                                 |
 +-------------------------------------------------+
 |                                                 |
 |              http://www.castep.org              |
 |                                                 |
 +-------------------------------------------------+
 
 
 
 Compiled for linux_x86_64_ifort18 on Fri, 05 Jul 2019 15:43:56 +0100
 from code version 
 0a9e5daac2f4+ Castep191_branch Wed, 03 Jul 2019 08:43:28 +0000
 Compiler: Intel Fortran 18.0.3.222; Optimisation: fast
 MATHLIBS: Intel MKL(2018.0.3) (LAPACK version 3.7.0)
 FFT Lib : default
 Fundamental constants values: CODATA 2014
 
 Run started: Tue, 17 Nov 2020 15:08:43 +0000
 
 Atomic calculation performed for Si: 1s2 2s2 2p6 3s2 3p2
 
 Converged in 55 iterations to an ae energy of -7859.183 eV
 
   ============================================================                
   | Pseudopotential Report - Date of generation 17-11-2020   |                
   ------------------------------------------------------------                
   | Element: Si Ionic charge:  4.00 Level of theory: LDA     |                
   | Atomic Solver: Koelling-Harmon                           |                
   |                                                          |                
   |               Reference Electronic Structure             |                
   |         Orbital         Occupation         Energy        |                
   |            3s              2.000           -0.400        |                
   |            3p              2.000           -0.153        |                
   |                                                          |                
   |                 Pseudopotential Definition               |                
   |        Beta     l      e      Rc     scheme   norm       |                
   |          1      0   -0.400   1.797     qc      0         |                
   |          2      0    0.250   1.797     qc      0         |                
   |          3      1   -0.153   1.797     qc      0         |                
   |          4      1    0.250   1.797     qc      0         |                
   |          5      2    0.000   1.797     qc      0         |                
   |          6      2    0.250   1.797     qc      0         |                
   |         loc     3    0.000   1.797     pn      0         |                
   |                                                          |                
   | Augmentation charge Rinner = 1.255                       |                
   | Partial core correction Rc = 1.255                       |                
   ------------------------------------------------------------                
   | "3|1.8|5|6|7|30:31:32"                                   |                
   ------------------------------------------------------------                
   |      Author: Chris J. Pickard, Cambridge University      |                
   ============================================================                
 
 Atomic calculation performed for H:mu: 1s1
 
 Converged in 41 iterations to an ae energy of -12.134 eV
 
   ============================================================                
   | Pseudopotential Report - Date of generation 17-11-2020   |                
   ------------------------------------------------------------                
   | Element: H Ionic charge:  1.00 Level of theory: LDA      |                
   | Atomic Solver: Koelling-Harmon                           |                
   |                                                          |                
   |               Reference Electronic Structure             |                
   |         Orbital         Occupation         Energy        |                
   |            1s              1.000           -0.234        |                
   |                                                          |                
   |                 Pseudopotential Definition               |                
   |        Beta     l      e      Rc     scheme   norm       |                
   |          1      0   -0.234   0.599     qc      0         |                
   |          2      0    0.250   0.599     qc      0         |                
   |         loc     1    0.000   0.599     pn      0         |                
   |                                                          |                
   | Augmentation charge Rinner = 0.421                       |                
   | No partial core correction                               |                
   ------------------------------------------------------------                
   | "1|0.6|13|15|17|10(qc=8)"                                |                
   ------------------------------------------------------------                
   |      Author: Chris J. Pickard, Cambridge University      |                
   ============================================================                
 
 Pseudo atomic calculation performed for Si 3s2 3p2
 
 Converged in 21 iterations to a total energy of -162.9266 eV
 
 Pseudo atomic calculation performed for H:mu 1s1
 
 Converged in 18 iterations to a total energy of -11.6786 eV
 Calculation parallelised over 8 processes.
 Data is distributed by G-vector(8-way)

 ************************************ Title ************************************
 

 ***************************** General Parameters ******************************
  
 output verbosity                               : normal  (1)
 write checkpoint data to                       : ./castep-pymuonsuite-test-data/muon-airss-out-castep/castep/Si2_19/Si2_19.check
 type of calculation                            : geometry optimization
 stress calculation                             : off
 density difference calculation                 : off
 electron localisation func (ELF) calculation   : off
 Hirshfeld analysis                             : off
 unlimited duration calculation
 timing information                             : on
 memory usage estimate                          : on
 write extra output files                       : on
 write final potential to formatted file        : off
 write final density to formatted file          : on
 write structure in CELL formatted file         : on
 write BibTeX reference list                    : on
 write OTFG pseudopotential files               : on
 write electrostatic potential file             : on
 write bands file                               : on
 checkpoint writing                             : both castep_bin and check files
  
 output         length unit                     : A
 output           mass unit                     : amu
 output           time unit                     : ps
 output         charge unit                     : e
 output           spin unit                     : hbar/2
 output         energy unit                     : eV
 output          force unit                     : eV/A
 output       velocity unit                     : A/ps
 output       pressure unit                     : GPa
 output     inv_length unit                     : 1/A
 output      frequency unit                     : cm-1
 output force constant unit                     : eV/A**2
 output         volume unit                     : A**3
 output   IR intensity unit                     : (D/A)**2/amu
 output         dipole unit                     : D
 output         efield unit                     : eV/A/e
 output        entropy unit                     : J/mol/K
  
 wavefunctions paging                           : none
 random number generator seed                   : randomised (150843369)
 data distribution                              : optimal for this architecture
 optimization strategy                          : maximize speed(+++)

 *********************** Exchange-Correlation Parameters ***********************
  
 using functional                               : Local Density Approximation
 relativistic treatment                         : Koelling-Harmon
 DFT+D: Semi-empirical dispersion correction    : off

 ************************* Pseudopotential Parameters **************************
  
 pseudopotential representation                 : reciprocal space
 <beta|phi> representation                      : reciprocal space
 spin-orbit coupling                            : off

 **************************** Basis Set Parameters *****************************
  
 plane wave basis set cut-off                   :   150.0000   eV
 size of standard grid                          :     2.0000
 size of   fine   gmax                          :    12.5491   1/A
 finite basis set correction                    : none

 **************************** Electronic Parameters ****************************
  
 number of  electrons                           :  8.000    
 net charge of system                           : +1.000    
 treating system as non-spin-polarized
 number of bands                                :          4

 ********************* Electronic Minimization Parameters **********************
  
 Method: Treating system as non-metallic,
         and number of  SD  steps               :          1
         and number of  CG  steps               :          4
  
 total energy / atom convergence tol.           : 0.1000E-07   eV
 eigen-energy convergence tolerance             : 0.7500E-08   eV
 max force / atom convergence tol.              : ignored
 convergence tolerance window                   :          3   cycles
 max. number of SCF cycles                      :        200
 periodic dipole correction                     : NONE

 ************************** Density Mixing Parameters **************************
  
 density-mixing scheme                          : Broyden
 max. length of mixing history                  :         20
 charge density mixing amplitude                : 0.8000    
 cut-off energy for mixing                      :  150.0       eV

 *********************** Population Analysis Parameters ************************
  
 Population analysis with cutoff                :  3.000       A
 Population analysis output                     : summary and pdos components

 ********************** Geometry Optimization Parameters ***********************
  
 optimization method                            : LBFGS
 max. no. of LBFGS updates                      : unbounded
 variable cell method                           : fixed basis quality
 max. number of steps                           :        300
 estimated bulk modulus                         :  500.0       GPa
 estimated <frequency>                          :  1668.       cm-1
 geom line minimiser                            : on
 with line minimiser tolerance                  :     0.4000
 total energy convergence tolerance             : 0.2000E-04   eV/atom
        max ionic |force| tolerance             : 0.5000E-01   eV/A
 max ionic |displacement| tolerance             : 0.1000E-02   A
   max |stress component| tolerance             : 0.1000       GPa
 convergence tolerance window                   :          2   steps
 backup results every                           :          5   steps
 write geom trajectory file                     : on

 *******************************************************************************
  
 
                           -------------------------------
                                      Unit Cell
                           -------------------------------
        Real Lattice(A)                      Reciprocal Lattice(1/A)
     2.6954640     2.6954640     0.0000000        1.165510893   1.165510893  -1.165510893
     2.6954640     0.0000000     2.6954640        1.165510893  -1.165510893   1.165510893
     0.0000000     2.6954640     2.6954640       -1.165510893   1.165510893   1.165510893
 
                       Lattice parameters(A)       Cell Angles
                    a =      3.811962          alpha =   60.000000
                    b =      3.811962          beta  =   60.000000
                    c =      3.811962          gamma =   60.000000
 
                       Current cell volume =            39.167928       A**3
                                   density =             1.459841   AMU/A**3
                                           =             2.424123     g/cm^3
 
                           -------------------------------
                                     Cell Contents
                           -------------------------------
                         Total number of ions in cell =    3
                      Total number of species in cell =    2
                        Max number of any one species =    2
 
            xxxxxxxxxxxxxxxxxxxxxxxxxxxxxxxxxxxxxxxxxxxxxxxxxxxxxxxxxxxx
            x  Element    Atom        Fractional coordinates of atoms  x
            x            Number           u          v          w      x
            x----------------------------------------------------------x
            x  Si           1         0.000000   0.000000   0.000000   x 
            x  Si           2         0.250000   0.250000   0.250000   x 
            x  H:mu         1         0.517025   0.277394   0.218561   x 
            xxxxxxxxxxxxxxxxxxxxxxxxxxxxxxxxxxxxxxxxxxxxxxxxxxxxxxxxxxxx
 
 
                         No user defined ionic velocities
 
                           -------------------------------
                                   Details of Species
                           -------------------------------
 
                               Mass of species in AMU
                                    Si   28.0855000
                                    H:mu    0.1134289
 
                          Electric Quadrupole Moment (Barn)
                                    Si    1.0000000 No Isotope Defined
                                    H:mu    0.0028600 Isotope  2
 
                          Files used for pseudopotentials:
                                    Si 3|1.8|5|6|7|30:31:32
                                    H:mu 1|0.6|13|15|17|10(qc=8)
 
                           -------------------------------
                              k-Points For BZ Sampling
                           -------------------------------
                       MP grid size for SCF calculation is  1  1  1
                            with an offset of   0.000  0.000  0.000
                       Number of kpoints used =             1
 
                           -------------------------------
                               Symmetry and Constraints
                           -------------------------------
 
                      Maximum deviation from symmetry =  0.00000         ANG
 
                      Number of symmetry operations   =           1
                      Number of ionic constraints     =           3
                      Point group of crystal =     1: C1, 1, 1
                      Space group of crystal =     1: P1, P 1
 
             Set iprint > 1 for details on symmetry rotations/translations
 
                         Centre of mass is constrained
             Set iprint > 1 for details of linear ionic constraints
 
                         Number of cell constraints= 6
                         Cell constraints are:  0 0 0 0 0 0
 
                         External pressure/stress (GPa)
                          0.00000   0.00000   0.00000
                                    0.00000   0.00000
                                              0.00000
  
+---------------- MEMORY AND SCRATCH DISK ESTIMATES PER PROCESS --------------+
|                                                     Memory          Disk    |
| Baseline code, static data and system overhead      464.0 MB         0.0 MB |
| BLAS internal memory storage                          0.0 MB         0.0 MB |
| Model and support data                               25.0 MB         0.0 MB |
| Electronic energy minimisation requirements           0.2 MB         0.0 MB |
| Force calculation requirements                        0.1 MB         0.0 MB |
|                                               ----------------------------- |
| Approx. total storage required per process          489.2 MB         0.0 MB |
|                                                                             |
| Requirements will fluctuate during execution and may exceed these estimates |
+-----------------------------------------------------------------------------+
Calculating total energy with cut-off of  150.000 eV.
------------------------------------------------------------------------ <-- SCF
SCF loop      Energy                           Energy gain       Timer   <-- SCF
                                               per atom          (sec)   <-- SCF
------------------------------------------------------------------------ <-- SCF
Initial  -7.65378687E+001                                          5.71  <-- SCF
      1  -3.24718463E+002                    8.27268647E+001       5.72  <-- SCF
      2  -3.39751016E+002                    5.01085090E+000       5.72  <-- SCF
      3  -3.39872063E+002                    4.03491987E-002       5.73  <-- SCF
      4  -3.37482541E+002                   -7.96507431E-001       5.74  <-- SCF
      5  -3.36688388E+002                   -2.64717742E-001       5.75  <-- SCF
      6  -3.36636775E+002                   -1.72040690E-002       5.75  <-- SCF
      7  -3.36630088E+002                   -2.22908944E-003       5.76  <-- SCF
      8  -3.36627167E+002                   -9.73739870E-004       5.77  <-- SCF
      9  -3.36627343E+002                    5.85357587E-005       5.78  <-- SCF
     10  -3.36625886E+002                   -4.85397429E-004       5.79  <-- SCF
     11  -3.36626344E+002                    1.52469535E-004       5.80  <-- SCF
     12  -3.36626459E+002                    3.84308449E-005       5.81  <-- SCF
     13  -3.36626398E+002                   -2.03482059E-005       5.82  <-- SCF
     14  -3.36626635E+002                    7.90428554E-005       5.83  <-- SCF
     15  -3.36626247E+002                   -1.29350006E-004       5.84  <-- SCF
     16  -3.36626365E+002                    3.92061467E-005       5.86  <-- SCF
     17  -3.36626251E+002                   -3.78577386E-005       5.87  <-- SCF
     18  -3.36626259E+002                    2.47367036E-006       5.88  <-- SCF
     19  -3.36626236E+002                   -7.67245018E-006       5.89  <-- SCF
     20  -3.36626237E+002                    6.33303545E-007       5.90  <-- SCF
     21  -3.36626238E+002                    4.12999865E-008       5.91  <-- SCF
     22  -3.36626237E+002                   -1.11912786E-007       5.92  <-- SCF
     23  -3.36626239E+002                    5.79070781E-007       5.93  <-- SCF
     24  -3.36626237E+002                   -6.61028531E-007       5.94  <-- SCF
     25  -3.36626237E+002                    4.25774080E-008       5.95  <-- SCF
     26  -3.36626237E+002                    4.96655650E-008       5.97  <-- SCF
     27  -3.36626237E+002                   -1.05171609E-008       5.97  <-- SCF
     28  -3.36626237E+002                    7.70197572E-008       5.99  <-- SCF
     29  -3.36626237E+002                   -1.02467372E-007       6.00  <-- SCF
     30  -3.36626237E+002                    1.40603049E-009       6.01  <-- SCF
     31  -3.36626237E+002                    1.65163145E-009       6.01  <-- SCF
------------------------------------------------------------------------ <-- SCF
 
Final energy =  -336.6262371630     eV
(energy not corrected for finite basis set)
 

Writing analysis data to ./castep-pymuonsuite-test-data/muon-airss-out-castep/castep/Si2_19/Si2_19.castep_bin

Writing model to ./castep-pymuonsuite-test-data/muon-airss-out-castep/castep/Si2_19/Si2_19.check
 
+---------------- MEMORY AND SCRATCH DISK ESTIMATES PER PROCESS --------------+
|                                                     Memory          Disk    |
| Model and support data                               36.0 MB         0.0 MB |
| Electronic energy minimisation requirements           0.2 MB         0.0 MB |
| Geometry minimisation requirements                    0.2 MB         0.0 MB |
|                                               ----------------------------- |
| Approx. total storage required per process           36.3 MB         0.0 MB |
|                                                                             |
| Requirements will fluctuate during execution and may exceed these estimates |
+-----------------------------------------------------------------------------+
 
 
 ************************************** Forces **************************************
 *                                                                                  *
 *                           Cartesian components (eV/A)                            *
 * -------------------------------------------------------------------------------- *
 *                         x                    y                    z              *
 *                                                                                  *
 * Si              1      2.56722              3.60401             -5.09119         *
 * Si              2    -23.15218            -19.01335              6.30448         *
 * H:mu            1     20.58496             15.40934             -1.21329         *
 *                                                                                  *
 ************************************************************************************
 LBFGS: finished iteration     0 with enthalpy= -3.36626237E+002 eV
  
 +-----------+-----------------+-----------------+------------+-----+ <-- LBFGS
 | Parameter |      value      |    tolerance    |    units   | OK? | <-- LBFGS
 +-----------+-----------------+-----------------+------------+-----+ <-- LBFGS
 |  dE/ion   |   0.000000E+000 |   2.000000E-005 |         eV | No  | <-- LBFGS
 |  |F|max   |   3.061499E+001 |   5.000000E-002 |       eV/A | No  | <-- LBFGS
 |  |dR|max  |   0.000000E+000 |   1.000000E-003 |          A | No  | <-- LBFGS
 +-----------+-----------------+-----------------+------------+-----+ <-- LBFGS
  

================================================================================
 Starting LBFGS iteration          1 ...
================================================================================
  
 +------------+-------------+-------------+-----------------+ <-- min LBFGS
 |    Step    |   lambda    |   F.delta'  |    enthalpy     | <-- min LBFGS
 +------------+-------------+-------------+-----------------+ <-- min LBFGS
 |  previous  |    0.000000 |    5.100423 |     -336.626237 | <-- min LBFGS
 +------------+-------------+-------------+-----------------+ <-- min LBFGS
  

--------------------------------------------------------------------------------
 LBFGS: starting iteration         1 with trial guess (lambda=  1.000000)
--------------------------------------------------------------------------------
 
                           -------------------------------
                                     Cell Contents
                           -------------------------------
 
            xxxxxxxxxxxxxxxxxxxxxxxxxxxxxxxxxxxxxxxxxxxxxxxxxxxxxxxxxxxxxxxxx
            x  Element         Atom        Fractional coordinates of atoms  x
            x                 Number           u          v          w      x
            x---------------------------------------------------------------x
            x  Si                1         0.010886  -0.005923  -0.003919   x
            x  Si                2         0.203151   0.252093   0.260094   x
            x  H:mu              1         0.552988   0.281224   0.212386   x
            xxxxxxxxxxxxxxxxxxxxxxxxxxxxxxxxxxxxxxxxxxxxxxxxxxxxxxxxxxxxxxxxx
 
 
------------------------------------------------------------------------ <-- SCF
SCF loop      Energy                           Energy gain       Timer   <-- SCF
                                               per atom          (sec)   <-- SCF
------------------------------------------------------------------------ <-- SCF
Initial  -3.38225392E+002                                          6.11  <-- SCF
      1  -3.41584714E+002                    1.11977417E+000       6.11  <-- SCF
      2  -3.41615204E+002                    1.01633383E-002       6.12  <-- SCF
      3  -3.41262152E+002                   -1.17684171E-001       6.13  <-- SCF
      4  -3.41190425E+002                   -2.39088225E-002       6.14  <-- SCF
      5  -3.41189605E+002                   -2.73482257E-004       6.14  <-- SCF
      6  -3.41189595E+002                   -3.23671315E-006       6.15  <-- SCF
      7  -3.41189581E+002                   -4.53638971E-006       6.16  <-- SCF
      8  -3.41189583E+002                    5.10224849E-007       6.17  <-- SCF
      9  -3.41189583E+002                   -1.38214920E-007       6.17  <-- SCF
     10  -3.41189583E+002                    8.88837678E-009       6.18  <-- SCF
     11  -3.41189583E+002                    3.72774348E-009       6.18  <-- SCF
     12  -3.41189583E+002                    8.85713488E-010       6.19  <-- SCF
------------------------------------------------------------------------ <-- SCF
 
Final energy =  -341.1895825513     eV
(energy not corrected for finite basis set)
 
 
 ************************************** Forces **************************************
 *                                                                                  *
 *                           Cartesian components (eV/A)                            *
 * -------------------------------------------------------------------------------- *
 *                         x                    y                    z              *
 *                                                                                  *
 * Si              1      0.91480              1.71768             -3.24349         *
 * Si              2     -4.04607             -4.26300              4.90250         *
 * H:mu            1      3.13127              2.54532             -1.65901         *
 *                                                                                  *
 ************************************************************************************
  
 +------------+-------------+-------------+-----------------+ <-- min LBFGS
 |    Step    |   lambda    |   F.delta'  |    enthalpy     | <-- min LBFGS
 +------------+-------------+-------------+-----------------+ <-- min LBFGS
 |  previous  |    0.000000 |    5.100423 |     -336.626237 | <-- min LBFGS
 | trial step |    1.000000 |    1.042692 |     -341.189583 | <-- min LBFGS
 +------------+-------------+-------------+-----------------+ <-- min LBFGS
  
 LBFGS: finished iteration     1 with enthalpy= -3.41189583E+002 eV
  
 +-----------+-----------------+-----------------+------------+-----+ <-- LBFGS
 | Parameter |      value      |    tolerance    |    units   | OK? | <-- LBFGS
 +-----------+-----------------+-----------------+------------+-----+ <-- LBFGS
 |  dE/ion   |   1.521115E+000 |   2.000000E-005 |         eV | No  | <-- LBFGS
 |  |F|max   |   7.653648E+000 |   5.000000E-002 |       eV/A | No  | <-- LBFGS
 |  |dR|max  |   1.595249E-001 |   1.000000E-003 |          A | No  | <-- LBFGS
 +-----------+-----------------+-----------------+------------+-----+ <-- LBFGS
  

================================================================================
 Starting LBFGS iteration          2 ...
================================================================================
  
 +------------+-------------+-------------+-----------------+ <-- min LBFGS
 |    Step    |   lambda    |   F.delta'  |    enthalpy     | <-- min LBFGS
 +------------+-------------+-------------+-----------------+ <-- min LBFGS
 |  previous  |    0.000000 |    0.995711 |     -341.189583 | <-- min LBFGS
 +------------+-------------+-------------+-----------------+ <-- min LBFGS
  

--------------------------------------------------------------------------------
 LBFGS: starting iteration         2 with trial guess (lambda=  1.000000)
--------------------------------------------------------------------------------
 
                           -------------------------------
                                     Cell Contents
                           -------------------------------
 
            xxxxxxxxxxxxxxxxxxxxxxxxxxxxxxxxxxxxxxxxxxxxxxxxxxxxxxxxxxxxxxxxx
            x  Element         Atom        Fractional coordinates of atoms  x
            x                 Number           u          v          w      x
            x---------------------------------------------------------------x
            x  Si                1         0.018267  -0.010971  -0.006971   x
            x  Si                2         0.186058   0.258360   0.266011   x
            x  H:mu              1         0.562700   0.280005   0.209521   x
            xxxxxxxxxxxxxxxxxxxxxxxxxxxxxxxxxxxxxxxxxxxxxxxxxxxxxxxxxxxxxxxxx
 
 
------------------------------------------------------------------------ <-- SCF
SCF loop      Energy                           Energy gain       Timer   <-- SCF
                                               per atom          (sec)   <-- SCF
------------------------------------------------------------------------ <-- SCF
Initial  -3.41349106E+002                                          6.23  <-- SCF
      1  -3.41695983E+002                    1.15625613E-001       6.23  <-- SCF
      2  -3.41698962E+002                    9.93087845E-004       6.24  <-- SCF
      3  -3.41689340E+002                   -3.20724758E-003       6.25  <-- SCF
      4  -3.41687816E+002                   -5.07923941E-004       6.25  <-- SCF
      5  -3.41687869E+002                    1.77145829E-005       6.26  <-- SCF
      6  -3.41687878E+002                    2.69781682E-006       6.27  <-- SCF
      7  -3.41687877E+002                   -1.55975868E-007       6.27  <-- SCF
      8  -3.41687877E+002                    9.35550682E-009       6.28  <-- SCF
      9  -3.41687877E+002                    2.43698094E-009       6.28  <-- SCF
     10  -3.41687877E+002                    4.46957344E-010       6.29  <-- SCF
------------------------------------------------------------------------ <-- SCF
 
Final energy =  -341.6878770807     eV
(energy not corrected for finite basis set)
 
 
 ************************************** Forces **************************************
 *                                                                                  *
 *                           Cartesian components (eV/A)                            *
 * -------------------------------------------------------------------------------- *
 *                         x                    y                    z              *
 *                                                                                  *
 * Si              1      0.46682              0.85975             -2.02931         *
 * Si              2     -1.84285             -2.16135              3.58410         *
 * H:mu            1      1.37604              1.30159             -1.55479         *
 *                                                                                  *
 ************************************************************************************
  
 +------------+-------------+-------------+-----------------+ <-- min LBFGS
 |    Step    |   lambda    |   F.delta'  |    enthalpy     | <-- min LBFGS
 +------------+-------------+-------------+-----------------+ <-- min LBFGS
 |  previous  |    0.000000 |    0.995711 |     -341.189583 | <-- min LBFGS
 | trial step |    1.000000 |    0.569290 |     -341.687877 | <-- min LBFGS
 +------------+-------------+-------------+-----------------+ <-- min LBFGS
  

--------------------------------------------------------------------------------
 LBFGS: improving iteration         2 with line minimization (lambda=  2.335040)
--------------------------------------------------------------------------------
 
                           -------------------------------
                                     Cell Contents
                           -------------------------------
 
            xxxxxxxxxxxxxxxxxxxxxxxxxxxxxxxxxxxxxxxxxxxxxxxxxxxxxxxxxxxxxxxxx
            x  Element         Atom        Fractional coordinates of atoms  x
            x                 Number           u          v          w      x
            x---------------------------------------------------------------x
            x  Si                1         0.028121  -0.017710  -0.011046   x
            x  Si                2         0.163238   0.266725   0.273911   x
            x  H:mu              1         0.575666   0.278379   0.205697   x
            xxxxxxxxxxxxxxxxxxxxxxxxxxxxxxxxxxxxxxxxxxxxxxxxxxxxxxxxxxxxxxxxx
 
 
------------------------------------------------------------------------ <-- SCF
SCF loop      Energy                           Energy gain       Timer   <-- SCF
                                               per atom          (sec)   <-- SCF
------------------------------------------------------------------------ <-- SCF
Initial  -3.41684150E+002                                          6.32  <-- SCF
      1  -3.41998292E+002                    1.04713803E-001       6.32  <-- SCF
      2  -3.42001572E+002                    1.09338379E-003       6.33  <-- SCF
      3  -3.41983764E+002                   -5.93586804E-003       6.33  <-- SCF
      4  -3.41982722E+002                   -3.47395923E-004       6.34  <-- SCF
      5  -3.41982841E+002                    3.96210808E-005       6.35  <-- SCF
      6  -3.41982843E+002                    6.72783557E-007       6.35  <-- SCF
      7  -3.41982844E+002                    4.06706306E-007       6.36  <-- SCF
      8  -3.41982844E+002                   -3.14333145E-009       6.37  <-- SCF
      9  -3.41982844E+002                    1.67639618E-009       6.37  <-- SCF
------------------------------------------------------------------------ <-- SCF
 
Final energy =  -341.9828439822     eV
(energy not corrected for finite basis set)
 
 
 ************************************** Forces **************************************
 *                                                                                  *
 *                           Cartesian components (eV/A)                            *
 * -------------------------------------------------------------------------------- *
 *                         x                    y                    z              *
 *                                                                                  *
 * Si              1      0.01013             -0.07362             -0.44586         *
 * Si              2      0.06520             -0.18255              1.82179         *
 * H:mu            1     -0.07533              0.25617             -1.37593         *
 *                                                                                  *
 ************************************************************************************
  
 +------------+-------------+-------------+-----------------+ <-- min LBFGS
 |    Step    |   lambda    |   F.delta'  |    enthalpy     | <-- min LBFGS
 +------------+-------------+-------------+-----------------+ <-- min LBFGS
 |  previous  |    0.000000 |    0.995711 |     -341.189583 | <-- min LBFGS
 | trial step |    1.000000 |    0.569290 |     -341.687877 | <-- min LBFGS
 |  line step |    2.335040 |    0.140592 |     -341.982844 | <-- min LBFGS
 +------------+-------------+-------------+-----------------+ <-- min LBFGS
  
 LBFGS: finished iteration     2 with enthalpy= -3.41982844E+002 eV
  
 +-----------+-----------------+-----------------+------------+-----+ <-- LBFGS
 | Parameter |      value      |    tolerance    |    units   | OK? | <-- LBFGS
 +-----------+-----------------+-----------------+------------+-----+ <-- LBFGS
 |  dE/ion   |   2.644205E-001 |   2.000000E-005 |         eV | No  | <-- LBFGS
 |  |F|max   |   1.832074E+000 |   5.000000E-002 |       eV/A | No  | <-- LBFGS
 |  |dR|max  |   1.243839E-001 |   1.000000E-003 |          A | No  | <-- LBFGS
 +-----------+-----------------+-----------------+------------+-----+ <-- LBFGS
  

================================================================================
 Starting LBFGS iteration          3 ...
================================================================================
  
 +------------+-------------+-------------+-----------------+ <-- min LBFGS
 |    Step    |   lambda    |   F.delta'  |    enthalpy     | <-- min LBFGS
 +------------+-------------+-------------+-----------------+ <-- min LBFGS
 |  previous  |    0.000000 |    0.195171 |     -341.982844 | <-- min LBFGS
 +------------+-------------+-------------+-----------------+ <-- min LBFGS
  

--------------------------------------------------------------------------------
 LBFGS: starting iteration         3 with trial guess (lambda=  1.000000)
--------------------------------------------------------------------------------
 
                           -------------------------------
                                     Cell Contents
                           -------------------------------
 
            xxxxxxxxxxxxxxxxxxxxxxxxxxxxxxxxxxxxxxxxxxxxxxxxxxxxxxxxxxxxxxxxx
            x  Element         Atom        Fractional coordinates of atoms  x
            x                 Number           u          v          w      x
            x---------------------------------------------------------------x
            x  Si                1         0.030643  -0.019535  -0.012502   x
            x  Si                2         0.156028   0.270771   0.277371   x
            x  H:mu              1         0.580354   0.276159   0.203693   x
            xxxxxxxxxxxxxxxxxxxxxxxxxxxxxxxxxxxxxxxxxxxxxxxxxxxxxxxxxxxxxxxxx
 
 
------------------------------------------------------------------------ <-- SCF
SCF loop      Energy                           Energy gain       Timer   <-- SCF
                                               per atom          (sec)   <-- SCF
------------------------------------------------------------------------ <-- SCF
Initial  -3.42022459E+002                                          6.41  <-- SCF
      1  -3.42027743E+002                    1.76129146E-003       6.41  <-- SCF
      2  -3.42028067E+002                    1.07822955E-004       6.42  <-- SCF
      3  -3.42025922E+002                   -7.14732897E-004       6.43  <-- SCF
      4  -3.42025799E+002                   -4.11087719E-005       6.43  <-- SCF
      5  -3.42025811E+002                    3.86622345E-006       6.44  <-- SCF
      6  -3.42025811E+002                    1.78941693E-007       6.45  <-- SCF
      7  -3.42025811E+002                    1.96599038E-008       6.45  <-- SCF
      8  -3.42025811E+002                    5.07604332E-010       6.46  <-- SCF
      9  -3.42025811E+002                    4.79794369E-010       6.46  <-- SCF
------------------------------------------------------------------------ <-- SCF
 
Final energy =  -342.0258112212     eV
(energy not corrected for finite basis set)
 
 
 ************************************** Forces **************************************
 *                                                                                  *
 *                           Cartesian components (eV/A)                            *
 * -------------------------------------------------------------------------------- *
 *                         x                    y                    z              *
 *                                                                                  *
 * Si              1      0.05538             -0.16529              0.19637         *
 * Si              2      0.29734              0.13010              1.04306         *
 * H:mu            1     -0.35273              0.03520             -1.23944         *
 *                                                                                  *
 ************************************************************************************
  
 +------------+-------------+-------------+-----------------+ <-- min LBFGS
 |    Step    |   lambda    |   F.delta'  |    enthalpy     | <-- min LBFGS
 +------------+-------------+-------------+-----------------+ <-- min LBFGS
 |  previous  |    0.000000 |    0.195171 |     -341.982844 | <-- min LBFGS
 | trial step |    1.000000 |    0.089981 |     -342.025811 | <-- min LBFGS
 +------------+-------------+-------------+-----------------+ <-- min LBFGS
  

--------------------------------------------------------------------------------
 LBFGS: improving iteration         3 with line minimization (lambda=  1.855411)
--------------------------------------------------------------------------------
 
                           -------------------------------
                                     Cell Contents
                           -------------------------------
 
            xxxxxxxxxxxxxxxxxxxxxxxxxxxxxxxxxxxxxxxxxxxxxxxxxxxxxxxxxxxxxxxxx
            x  Element         Atom        Fractional coordinates of atoms  x
            x                 Number           u          v          w      x
            x---------------------------------------------------------------x
            x  Si                1         0.032801  -0.021097  -0.013748   x
            x  Si                2         0.149861   0.274231   0.280331   x
            x  H:mu              1         0.584363   0.274260   0.201978   x
            xxxxxxxxxxxxxxxxxxxxxxxxxxxxxxxxxxxxxxxxxxxxxxxxxxxxxxxxxxxxxxxxx
 
 
------------------------------------------------------------------------ <-- SCF
SCF loop      Energy                           Energy gain       Timer   <-- SCF
                                               per atom          (sec)   <-- SCF
------------------------------------------------------------------------ <-- SCF
Initial  -3.42045324E+002                                          6.49  <-- SCF
      1  -3.42039456E+002                   -1.95618990E-003       6.49  <-- SCF
      2  -3.42039686E+002                    7.67888834E-005       6.50  <-- SCF
      3  -3.42038007E+002                   -5.59588905E-004       6.51  <-- SCF
      4  -3.42037920E+002                   -2.89123653E-005       6.51  <-- SCF
      5  -3.42037929E+002                    2.81422011E-006       6.52  <-- SCF
      6  -3.42037929E+002                    1.39352889E-007       6.53  <-- SCF
      7  -3.42037929E+002                    1.02813079E-008       6.53  <-- SCF
      8  -3.42037929E+002                    3.99522506E-010       6.54  <-- SCF
      9  -3.42037929E+002                    4.41930283E-010       6.54  <-- SCF
------------------------------------------------------------------------ <-- SCF
 
Final energy =  -342.0379292771     eV
(energy not corrected for finite basis set)
 
 
 ************************************** Forces **************************************
 *                                                                                  *
 *                           Cartesian components (eV/A)                            *
 * -------------------------------------------------------------------------------- *
 *                         x                    y                    z              *
 *                                                                                  *
 * Si              1      0.10572             -0.23298              0.74459         *
 * Si              2      0.45003              0.36512              0.38010         *
 * H:mu            1     -0.55575             -0.13214             -1.12469         *
 *                                                                                  *
 ************************************************************************************
  
 +------------+-------------+-------------+-----------------+ <-- min LBFGS
 |    Step    |   lambda    |   F.delta'  |    enthalpy     | <-- min LBFGS
 +------------+-------------+-------------+-----------------+ <-- min LBFGS
 |  previous  |    0.000000 |    0.195171 |     -341.982844 | <-- min LBFGS
 | trial step |    1.000000 |    0.089981 |     -342.025811 | <-- min LBFGS
 |  line step |    1.855411 |    0.004155 |     -342.037929 | <-- min LBFGS
 +------------+-------------+-------------+-----------------+ <-- min LBFGS
  
 LBFGS: finished iteration     3 with enthalpy= -3.42037929E+002 eV
  
 +-----------+-----------------+-----------------+------------+-----+ <-- LBFGS
 | Parameter |      value      |    tolerance    |    units   | OK? | <-- LBFGS
 +-----------+-----------------+-----------------+------------+-----+ <-- LBFGS
 |  dE/ion   |   1.836176E-002 |   2.000000E-005 |         eV | No  | <-- LBFGS
 |  |F|max   |   1.261447E+000 |   5.000000E-002 |       eV/A | No  | <-- LBFGS
 |  |dR|max  |   4.484644E-002 |   1.000000E-003 |          A | No  | <-- LBFGS
 +-----------+-----------------+-----------------+------------+-----+ <-- LBFGS
  

================================================================================
 Starting LBFGS iteration          4 ...
================================================================================
  
 +------------+-------------+-------------+-----------------+ <-- min LBFGS
 |    Step    |   lambda    |   F.delta'  |    enthalpy     | <-- min LBFGS
 +------------+-------------+-------------+-----------------+ <-- min LBFGS
 |  previous  |    0.000000 |    0.199989 |     -342.037929 | <-- min LBFGS
 +------------+-------------+-------------+-----------------+ <-- min LBFGS
  

--------------------------------------------------------------------------------
 LBFGS: starting iteration         4 with trial guess (lambda=  1.000000)
--------------------------------------------------------------------------------
 
                           -------------------------------
                                     Cell Contents
                           -------------------------------
 
            xxxxxxxxxxxxxxxxxxxxxxxxxxxxxxxxxxxxxxxxxxxxxxxxxxxxxxxxxxxxxxxxx
            x  Element         Atom        Fractional coordinates of atoms  x
            x                 Number           u          v          w      x
            x---------------------------------------------------------------x
            x  Si                1         0.032096  -0.020156  -0.013513   x
            x  Si                2         0.149559   0.275280   0.281104   x
            x  H:mu              1         0.585370   0.272271   0.200970   x
            xxxxxxxxxxxxxxxxxxxxxxxxxxxxxxxxxxxxxxxxxxxxxxxxxxxxxxxxxxxxxxxxx
 
 
------------------------------------------------------------------------ <-- SCF
SCF loop      Energy                           Energy gain       Timer   <-- SCF
                                               per atom          (sec)   <-- SCF
------------------------------------------------------------------------ <-- SCF
Initial  -3.42115273E+002                                          6.58  <-- SCF
      1  -3.42053843E+002                   -2.04766860E-002       6.58  <-- SCF
      2  -3.42053911E+002                    2.25761867E-005       6.59  <-- SCF
      3  -3.42053603E+002                   -1.02680366E-004       6.60  <-- SCF
      4  -3.42053588E+002                   -4.86571162E-006       6.60  <-- SCF
      5  -3.42053588E+002                   -1.23408371E-007       6.61  <-- SCF
      6  -3.42053588E+002                    6.44216345E-009       6.62  <-- SCF
      7  -3.42053588E+002                    2.37572168E-009       6.62  <-- SCF
------------------------------------------------------------------------ <-- SCF
 
Final energy =  -342.0535880173     eV
(energy not corrected for finite basis set)
 
 
 ************************************** Forces **************************************
 *                                                                                  *
 *                           Cartesian components (eV/A)                            *
 * -------------------------------------------------------------------------------- *
 *                         x                    y                    z              *
 *                                                                                  *
 * Si              1      0.14861             -0.14199              0.76015         *
 * Si              2      0.37994              0.27773              0.26993         *
 * H:mu            1     -0.52855             -0.13574             -1.03008         *
 *                                                                                  *
 ************************************************************************************
  
 +------------+-------------+-------------+-----------------+ <-- min LBFGS
 |    Step    |   lambda    |   F.delta'  |    enthalpy     | <-- min LBFGS
 +------------+-------------+-------------+-----------------+ <-- min LBFGS
 |  previous  |    0.000000 |    0.199989 |     -342.037929 | <-- min LBFGS
 | trial step |    1.000000 |    0.179797 |     -342.053588 | <-- min LBFGS
 +------------+-------------+-------------+-----------------+ <-- min LBFGS
  

--------------------------------------------------------------------------------
 LBFGS: improving iteration         4 with line minimization (lambda=  9.904109)
--------------------------------------------------------------------------------
 
                           -------------------------------
                                     Cell Contents
                           -------------------------------
 
            xxxxxxxxxxxxxxxxxxxxxxxxxxxxxxxxxxxxxxxxxxxxxxxxxxxxxxxxxxxxxxxxx
            x  Element         Atom        Fractional coordinates of atoms  x
            x                 Number           u          v          w      x
            x---------------------------------------------------------------x
            x  Si                1         0.025819  -0.011780  -0.011415   x
            x  Si                2         0.146871   0.284619   0.287982   x
            x  H:mu              1         0.594335   0.254555   0.191995   x
            xxxxxxxxxxxxxxxxxxxxxxxxxxxxxxxxxxxxxxxxxxxxxxxxxxxxxxxxxxxxxxxxx
 
 
------------------------------------------------------------------------ <-- SCF
SCF loop      Energy                           Energy gain       Timer   <-- SCF
                                               per atom          (sec)   <-- SCF
------------------------------------------------------------------------ <-- SCF
Initial  -3.42603328E+002                                          6.65  <-- SCF
      1  -3.42141473E+002                   -1.53951772E-001       6.65  <-- SCF
      2  -3.42145490E+002                    1.33904290E-003       6.66  <-- SCF
      3  -3.42119341E+002                   -8.71615897E-003       6.67  <-- SCF
      4  -3.42117141E+002                   -7.33528465E-004       6.67  <-- SCF
      5  -3.42117095E+002                   -1.53830133E-005       6.68  <-- SCF
      6  -3.42117092E+002                   -8.30023925E-007       6.69  <-- SCF
      7  -3.42117093E+002                    9.74474158E-008       6.70  <-- SCF
      8  -3.42117092E+002                   -1.81252159E-008       6.70  <-- SCF
      9  -3.42117093E+002                    8.83306299E-009       6.71  <-- SCF
     10  -3.42117093E+002                    5.80545064E-010       6.71  <-- SCF
------------------------------------------------------------------------ <-- SCF
 
Final energy =  -342.1170925173     eV
(energy not corrected for finite basis set)
 
 
 ************************************** Forces **************************************
 *                                                                                  *
 *                           Cartesian components (eV/A)                            *
 * -------------------------------------------------------------------------------- *
 *                         x                    y                    z              *
 *                                                                                  *
 * Si              1      0.60884              0.78449              0.72381         *
 * Si              2     -0.19137             -0.50302             -0.65102         *
 * H:mu            1     -0.41747             -0.28147             -0.07279         *
 *                                                                                  *
 ************************************************************************************
  
 +------------+-------------+-------------+-----------------+ <-- min LBFGS
 |    Step    |   lambda    |   F.delta'  |    enthalpy     | <-- min LBFGS
 +------------+-------------+-------------+-----------------+ <-- min LBFGS
 |  previous  |    0.000000 |    0.199989 |     -342.037929 | <-- min LBFGS
 | trial step |    1.000000 |    0.179797 |     -342.053588 | <-- min LBFGS
 |  line step |    9.904109 |   -0.010107 |     -342.117093 | <-- min LBFGS
 +------------+-------------+-------------+-----------------+ <-- min LBFGS
  
 LBFGS: finished iteration     4 with enthalpy= -3.42117093E+002 eV
  
 +-----------+-----------------+-----------------+------------+-----+ <-- LBFGS
 | Parameter |      value      |    tolerance    |    units   | OK? | <-- LBFGS
 +-----------+-----------------+-----------------+------------+-----+ <-- LBFGS
 |  dE/ion   |   2.638775E-002 |   2.000000E-005 |         eV | No  | <-- LBFGS
 |  |F|max   |   1.228824E+000 |   5.000000E-002 |       eV/A | No  | <-- LBFGS
 |  |dR|max  |   8.421799E-002 |   1.000000E-003 |          A | No  | <-- LBFGS
 +-----------+-----------------+-----------------+------------+-----+ <-- LBFGS
  

================================================================================
 Starting LBFGS iteration          5 ...
================================================================================

Writing analysis data to ./castep-pymuonsuite-test-data/muon-airss-out-castep/castep/Si2_19/Si2_19.castep_bin

Writing model to ./castep-pymuonsuite-test-data/muon-airss-out-castep/castep/Si2_19/Si2_19.check
  
 +------------+-------------+-------------+-----------------+ <-- min LBFGS
 |    Step    |   lambda    |   F.delta'  |    enthalpy     | <-- min LBFGS
 +------------+-------------+-------------+-----------------+ <-- min LBFGS
 |  previous  |    0.000000 |    0.156067 |     -342.117093 | <-- min LBFGS
 +------------+-------------+-------------+-----------------+ <-- min LBFGS
  

--------------------------------------------------------------------------------
 LBFGS: starting iteration         5 with trial guess (lambda=  1.000000)
--------------------------------------------------------------------------------
 
                           -------------------------------
                                     Cell Contents
                           -------------------------------
 
            xxxxxxxxxxxxxxxxxxxxxxxxxxxxxxxxxxxxxxxxxxxxxxxxxxxxxxxxxxxxxxxxx
            x  Element         Atom        Fractional coordinates of atoms  x
            x                 Number           u          v          w      x
            x---------------------------------------------------------------x
            x  Si                1         0.025526  -0.010531  -0.010161   x
            x  Si                2         0.148722   0.283643   0.286460   x
            x  H:mu              1         0.592777   0.254282   0.192262   x
            xxxxxxxxxxxxxxxxxxxxxxxxxxxxxxxxxxxxxxxxxxxxxxxxxxxxxxxxxxxxxxxxx
 
 
------------------------------------------------------------------------ <-- SCF
SCF loop      Energy                           Energy gain       Timer   <-- SCF
                                               per atom          (sec)   <-- SCF
------------------------------------------------------------------------ <-- SCF
Initial  -3.42153696E+002                                          6.79  <-- SCF
      1  -3.42128946E+002                   -8.25008602E-003       6.80  <-- SCF
      2  -3.42128987E+002                    1.36333808E-005       6.81  <-- SCF
      3  -3.42128754E+002                   -7.75667375E-005       6.81  <-- SCF
      4  -3.42128747E+002                   -2.31217977E-006       6.82  <-- SCF
      5  -3.42128749E+002                    4.93044447E-007       6.83  <-- SCF
      6  -3.42128749E+002                    3.03002599E-008       6.83  <-- SCF
      7  -3.42128749E+002                    2.67075542E-009       6.84  <-- SCF
      8  -3.42128749E+002                    5.43373810E-010       6.84  <-- SCF
------------------------------------------------------------------------ <-- SCF
 
Final energy =  -342.1287489115     eV
(energy not corrected for finite basis set)
 
 
 ************************************** Forces **************************************
 *                                                                                  *
 *                           Cartesian components (eV/A)                            *
 * -------------------------------------------------------------------------------- *
 *                         x                    y                    z              *
 *                                                                                  *
 * Si              1      0.52047              0.65209              0.33817         *
 * Si              2     -0.20430             -0.45038             -0.24084         *
 * H:mu            1     -0.31617             -0.20171             -0.09733         *
 *                                                                                  *
 ************************************************************************************
  
 +------------+-------------+-------------+-----------------+ <-- min LBFGS
 |    Step    |   lambda    |   F.delta'  |    enthalpy     | <-- min LBFGS
 +------------+-------------+-------------+-----------------+ <-- min LBFGS
 |  previous  |    0.000000 |    0.156067 |     -342.117093 | <-- min LBFGS
 | trial step |    1.000000 |    0.086449 |     -342.128749 | <-- min LBFGS
 +------------+-------------+-------------+-----------------+ <-- min LBFGS
  

--------------------------------------------------------------------------------
 LBFGS: improving iteration         5 with line minimization (lambda=  2.241761)
--------------------------------------------------------------------------------
 
                           -------------------------------
                                     Cell Contents
                           -------------------------------
 
            xxxxxxxxxxxxxxxxxxxxxxxxxxxxxxxxxxxxxxxxxxxxxxxxxxxxxxxxxxxxxxxxx
            x  Element         Atom        Fractional coordinates of atoms  x
            x                 Number           u          v          w      x
            x---------------------------------------------------------------x
            x  Si                1         0.025161  -0.008980  -0.008605   x
            x  Si                2         0.151021   0.282431   0.284571   x
            x  H:mu              1         0.590842   0.253943   0.192595   x
            xxxxxxxxxxxxxxxxxxxxxxxxxxxxxxxxxxxxxxxxxxxxxxxxxxxxxxxxxxxxxxxxx
 
 
------------------------------------------------------------------------ <-- SCF
SCF loop      Energy                           Energy gain       Timer   <-- SCF
                                               per atom          (sec)   <-- SCF
------------------------------------------------------------------------ <-- SCF
Initial  -3.42170711E+002                                          6.87  <-- SCF
      1  -3.42134123E+002                   -1.21960560E-002       6.87  <-- SCF
      2  -3.42134184E+002                    2.05110399E-005       6.88  <-- SCF
      3  -3.42133799E+002                   -1.28404944E-004       6.89  <-- SCF
      4  -3.42133790E+002                   -2.98461055E-006       6.89  <-- SCF
      5  -3.42133792E+002                    7.17766495E-007       6.90  <-- SCF
      6  -3.42133792E+002                    6.08743657E-008       6.91  <-- SCF
      7  -3.42133792E+002                    1.31533391E-009       6.91  <-- SCF
      8  -3.42133792E+002                    8.56469524E-010       6.92  <-- SCF
------------------------------------------------------------------------ <-- SCF
 
Final energy =  -342.1337922994     eV
(energy not corrected for finite basis set)
 
 
 ************************************** Forces **************************************
 *                                                                                  *
 *                           Cartesian components (eV/A)                            *
 * -------------------------------------------------------------------------------- *
 *                         x                    y                    z              *
 *                                                                                  *
 * Si              1      0.40453              0.48430             -0.14664         *
 * Si              2     -0.22101             -0.38728              0.27694         *
 * H:mu            1     -0.18352             -0.09702             -0.13030         *
 *                                                                                  *
 ************************************************************************************
  
 +------------+-------------+-------------+-----------------+ <-- min LBFGS
 |    Step    |   lambda    |   F.delta'  |    enthalpy     | <-- min LBFGS
 +------------+-------------+-------------+-----------------+ <-- min LBFGS
 |  previous  |    0.000000 |    0.156067 |     -342.117093 | <-- min LBFGS
 | trial step |    1.000000 |    0.086449 |     -342.128749 | <-- min LBFGS
 |  line step |    2.241761 |   -0.001858 |     -342.133792 | <-- min LBFGS
 +------------+-------------+-------------+-----------------+ <-- min LBFGS
  
 LBFGS: finished iteration     5 with enthalpy= -3.42133792E+002 eV
  
 +-----------+-----------------+-----------------+------------+-----+ <-- LBFGS
 | Parameter |      value      |    tolerance    |    units   | OK? | <-- LBFGS
 +-----------+-----------------+-----------------+------------+-----+ <-- LBFGS
 |  dE/ion   |   5.566594E-003 |   2.000000E-005 |         eV | No  | <-- LBFGS
 |  |F|max   |   6.478418E-001 |   5.000000E-002 |       eV/A | No  | <-- LBFGS
 |  |dR|max  |   1.719608E-002 |   1.000000E-003 |          A | No  | <-- LBFGS
 +-----------+-----------------+-----------------+------------+-----+ <-- LBFGS
  

================================================================================
 Starting LBFGS iteration          6 ...
================================================================================
  
 +------------+-------------+-------------+-----------------+ <-- min LBFGS
 |    Step    |   lambda    |   F.delta'  |    enthalpy     | <-- min LBFGS
 +------------+-------------+-------------+-----------------+ <-- min LBFGS
 |  previous  |    0.000000 |    0.079271 |     -342.133792 | <-- min LBFGS
 +------------+-------------+-------------+-----------------+ <-- min LBFGS
  

--------------------------------------------------------------------------------
 LBFGS: starting iteration         6 with trial guess (lambda=  1.000000)
--------------------------------------------------------------------------------
 
                           -------------------------------
                                     Cell Contents
                           -------------------------------
 
            xxxxxxxxxxxxxxxxxxxxxxxxxxxxxxxxxxxxxxxxxxxxxxxxxxxxxxxxxxxxxxxxx
            x  Element         Atom        Fractional coordinates of atoms  x
            x                 Number           u          v          w      x
            x---------------------------------------------------------------x
            x  Si                1         0.026461  -0.008275  -0.008083   x
            x  Si                2         0.148442   0.284285   0.285347   x
            x  H:mu              1         0.592121   0.251384   0.191297   x
            xxxxxxxxxxxxxxxxxxxxxxxxxxxxxxxxxxxxxxxxxxxxxxxxxxxxxxxxxxxxxxxxx
 
 
------------------------------------------------------------------------ <-- SCF
SCF loop      Energy                           Energy gain       Timer   <-- SCF
                                               per atom          (sec)   <-- SCF
------------------------------------------------------------------------ <-- SCF
Initial  -3.42216748E+002                                          6.95  <-- SCF
      1  -3.42142741E+002                   -2.46689559E-002       6.96  <-- SCF
      2  -3.42142854E+002                    3.78629179E-005       6.97  <-- SCF
      3  -3.42142146E+002                   -2.36007837E-004       6.97  <-- SCF
      4  -3.42142090E+002                   -1.87143592E-005       6.98  <-- SCF
      5  -3.42142090E+002                    1.87704522E-008       6.99  <-- SCF
      6  -3.42142090E+002                   -2.43269505E-008       6.99  <-- SCF
      7  -3.42142090E+002                    3.43398262E-009       7.00  <-- SCF
      8  -3.42142090E+002                    1.51108319E-009       7.00  <-- SCF
------------------------------------------------------------------------ <-- SCF
 
Final energy =  -342.1420902451     eV
(energy not corrected for finite basis set)
 
 
 ************************************** Forces **************************************
 *                                                                                  *
 *                           Cartesian components (eV/A)                            *
 * -------------------------------------------------------------------------------- *
 *                         x                    y                    z              *
 *                                                                                  *
 * Si              1      0.31520              0.31410             -0.19849         *
 * Si              2     -0.09630             -0.16686              0.22742         *
 * H:mu            1     -0.21890             -0.14724             -0.02893         *
 *                                                                                  *
 ************************************************************************************
  
 +------------+-------------+-------------+-----------------+ <-- min LBFGS
 |    Step    |   lambda    |   F.delta'  |    enthalpy     | <-- min LBFGS
 +------------+-------------+-------------+-----------------+ <-- min LBFGS
 |  previous  |    0.000000 |    0.079271 |     -342.133792 | <-- min LBFGS
 | trial step |    1.000000 |    0.047983 |     -342.142090 | <-- min LBFGS
 +------------+-------------+-------------+-----------------+ <-- min LBFGS
  

--------------------------------------------------------------------------------
 LBFGS: improving iteration         6 with line minimization (lambda=  2.533599)
--------------------------------------------------------------------------------
 
                           -------------------------------
                                     Cell Contents
                           -------------------------------
 
            xxxxxxxxxxxxxxxxxxxxxxxxxxxxxxxxxxxxxxxxxxxxxxxxxxxxxxxxxxxxxxxxx
            x  Element         Atom        Fractional coordinates of atoms  x
            x                 Number           u          v          w      x
            x---------------------------------------------------------------x
            x  Si                1         0.028455  -0.007194  -0.007283   x
            x  Si                2         0.144488   0.287128   0.286538   x
            x  H:mu              1         0.594082   0.247460   0.189306   x
            xxxxxxxxxxxxxxxxxxxxxxxxxxxxxxxxxxxxxxxxxxxxxxxxxxxxxxxxxxxxxxxxx
 
 
------------------------------------------------------------------------ <-- SCF
SCF loop      Energy                           Energy gain       Timer   <-- SCF
                                               per atom          (sec)   <-- SCF
------------------------------------------------------------------------ <-- SCF
Initial  -3.42258546E+002                                          7.03  <-- SCF
      1  -3.42148623E+002                   -3.66411438E-002       7.03  <-- SCF
      2  -3.42148895E+002                    9.08266961E-005       7.04  <-- SCF
      3  -3.42147153E+002                   -5.80748776E-004       7.05  <-- SCF
      4  -3.42147017E+002                   -4.53645937E-005       7.05  <-- SCF
      5  -3.42147017E+002                   -1.32893631E-007       7.06  <-- SCF
      6  -3.42147016E+002                   -4.97893402E-008       7.07  <-- SCF
      7  -3.42147016E+002                    1.08716976E-008       7.07  <-- SCF
      8  -3.42147016E+002                    1.41465061E-009       7.08  <-- SCF
      9  -3.42147016E+002                    4.69933594E-010       7.08  <-- SCF
------------------------------------------------------------------------ <-- SCF
 
Final energy =  -342.1470164700     eV
(energy not corrected for finite basis set)
 
 
 ************************************** Forces **************************************
 *                                                                                  *
 *                           Cartesian components (eV/A)                            *
 * -------------------------------------------------------------------------------- *
 *                         x                    y                    z              *
 *                                                                                  *
 * Si              1      0.18272              0.05745             -0.28364         *
 * Si              2      0.08946              0.16504              0.16273         *
 * H:mu            1     -0.27218             -0.22249              0.12092         *
 *                                                                                  *
 ************************************************************************************
  
 +------------+-------------+-------------+-----------------+ <-- min LBFGS
 |    Step    |   lambda    |   F.delta'  |    enthalpy     | <-- min LBFGS
 +------------+-------------+-------------+-----------------+ <-- min LBFGS
 |  previous  |    0.000000 |    0.079271 |     -342.133792 | <-- min LBFGS
 | trial step |    1.000000 |    0.047983 |     -342.142090 | <-- min LBFGS
 |  line step |    2.533599 |    0.001550 |     -342.147016 | <-- min LBFGS
 +------------+-------------+-------------+-----------------+ <-- min LBFGS
  
 LBFGS: finished iteration     6 with enthalpy= -3.42147016E+002 eV
  
 +-----------+-----------------+-----------------+------------+-----+ <-- LBFGS
 | Parameter |      value      |    tolerance    |    units   | OK? | <-- LBFGS
 +-----------+-----------------+-----------------+------------+-----+ <-- LBFGS
 |  dE/ion   |   4.408057E-003 |   2.000000E-005 |         eV | No  | <-- LBFGS
 |  |F|max   |   3.717556E-001 |   5.000000E-002 |       eV/A | No  | <-- LBFGS
 |  |dR|max  |   2.775099E-002 |   1.000000E-003 |          A | No  | <-- LBFGS
 +-----------+-----------------+-----------------+------------+-----+ <-- LBFGS
  

================================================================================
 Starting LBFGS iteration          7 ...
================================================================================
  
 +------------+-------------+-------------+-----------------+ <-- min LBFGS
 |    Step    |   lambda    |   F.delta'  |    enthalpy     | <-- min LBFGS
 +------------+-------------+-------------+-----------------+ <-- min LBFGS
 |  previous  |    0.000000 |    0.062358 |     -342.147016 | <-- min LBFGS
 +------------+-------------+-------------+-----------------+ <-- min LBFGS
  

--------------------------------------------------------------------------------
 LBFGS: starting iteration         7 with trial guess (lambda=  1.000000)
--------------------------------------------------------------------------------
 
                           -------------------------------
                                     Cell Contents
                           -------------------------------
 
            xxxxxxxxxxxxxxxxxxxxxxxxxxxxxxxxxxxxxxxxxxxxxxxxxxxxxxxxxxxxxxxxx
            x  Element         Atom        Fractional coordinates of atoms  x
            x                 Number           u          v          w      x
            x---------------------------------------------------------------x
            x  Si                1         0.029059  -0.007040  -0.007473   x
            x  Si                2         0.144428   0.287436   0.286778   x
            x  H:mu              1         0.593538   0.246999   0.189256   x
            xxxxxxxxxxxxxxxxxxxxxxxxxxxxxxxxxxxxxxxxxxxxxxxxxxxxxxxxxxxxxxxxx
 
 
------------------------------------------------------------------------ <-- SCF
SCF loop      Energy                           Energy gain       Timer   <-- SCF
                                               per atom          (sec)   <-- SCF
------------------------------------------------------------------------ <-- SCF
Initial  -3.42168051E+002                                          7.12  <-- SCF
      1  -3.42148751E+002                   -6.43316841E-003       7.12  <-- SCF
      2  -3.42148763E+002                    3.89548849E-006       7.13  <-- SCF
      3  -3.42148683E+002                   -2.67053214E-005       7.14  <-- SCF
      4  -3.42148678E+002                   -1.58128362E-006       7.14  <-- SCF
      5  -3.42148678E+002                   -7.54784311E-009       7.15  <-- SCF
      6  -3.42148678E+002                   -4.36790434E-010       7.16  <-- SCF
------------------------------------------------------------------------ <-- SCF
 
Final energy =  -342.1486781726     eV
(energy not corrected for finite basis set)
 
 
 ************************************** Forces **************************************
 *                                                                                  *
 *                           Cartesian components (eV/A)                            *
 * -------------------------------------------------------------------------------- *
 *                         x                    y                    z              *
 *                                                                                  *
 * Si              1      0.14534              0.04814             -0.25256         *
 * Si              2      0.09671              0.14921              0.14458         *
 * H:mu            1     -0.24204             -0.19735              0.10797         *
 *                                                                                  *
 ************************************************************************************
  
 +------------+-------------+-------------+-----------------+ <-- min LBFGS
 |    Step    |   lambda    |   F.delta'  |    enthalpy     | <-- min LBFGS
 +------------+-------------+-------------+-----------------+ <-- min LBFGS
 |  previous  |    0.000000 |    0.062358 |     -342.147016 | <-- min LBFGS
 | trial step |    1.000000 |    0.054498 |     -342.148678 | <-- min LBFGS
 +------------+-------------+-------------+-----------------+ <-- min LBFGS
  

--------------------------------------------------------------------------------
 LBFGS: improving iteration         7 with line minimization (lambda=  7.933165)
--------------------------------------------------------------------------------
 
                           -------------------------------
                                     Cell Contents
                           -------------------------------
 
            xxxxxxxxxxxxxxxxxxxxxxxxxxxxxxxxxxxxxxxxxxxxxxxxxxxxxxxxxxxxxxxxx
            x  Element         Atom        Fractional coordinates of atoms  x
            x                 Number           u          v          w      x
            x---------------------------------------------------------------x
            x  Si                1         0.033247  -0.005977  -0.008790   x
            x  Si                2         0.144015   0.289572   0.288441   x
            x  H:mu              1         0.589763   0.243799   0.188910   x
            xxxxxxxxxxxxxxxxxxxxxxxxxxxxxxxxxxxxxxxxxxxxxxxxxxxxxxxxxxxxxxxxx
 
 
------------------------------------------------------------------------ <-- SCF
SCF loop      Energy                           Energy gain       Timer   <-- SCF
                                               per atom          (sec)   <-- SCF
------------------------------------------------------------------------ <-- SCF
Initial  -3.42279412E+002                                          7.18  <-- SCF
      1  -3.42157808E+002                   -4.05346880E-002       7.19  <-- SCF
      2  -3.42158372E+002                    1.87885918E-004       7.19  <-- SCF
      3  -3.42154335E+002                   -1.34553155E-003       7.20  <-- SCF
      4  -3.42154090E+002                   -8.15295480E-005       7.21  <-- SCF
      5  -3.42154089E+002                   -4.36457053E-007       7.21  <-- SCF
      6  -3.42154089E+002                    7.56350434E-009       7.22  <-- SCF
      7  -3.42154089E+002                   -2.23263572E-008       7.23  <-- SCF
      8  -3.42154089E+002                    3.80031363E-009       7.23  <-- SCF
      9  -3.42154089E+002                    6.20100950E-010       7.24  <-- SCF
------------------------------------------------------------------------ <-- SCF
 
Final energy =  -342.1540891551     eV
(energy not corrected for finite basis set)
 
 
 ************************************** Forces **************************************
 *                                                                                  *
 *                           Cartesian components (eV/A)                            *
 * -------------------------------------------------------------------------------- *
 *                         x                    y                    z              *
 *                                                                                  *
 * Si              1     -0.11249             -0.01021             -0.03789         *
 * Si              2      0.14085              0.02780              0.02338         *
 * H:mu            1     -0.02836             -0.01760              0.01451         *
 *                                                                                  *
 ************************************************************************************
  
 +------------+-------------+-------------+-----------------+ <-- min LBFGS
 |    Step    |   lambda    |   F.delta'  |    enthalpy     | <-- min LBFGS
 +------------+-------------+-------------+-----------------+ <-- min LBFGS
 |  previous  |    0.000000 |    0.062358 |     -342.147016 | <-- min LBFGS
 | trial step |    1.000000 |    0.054498 |     -342.148678 | <-- min LBFGS
 |  line step |    7.933165 |   -0.000345 |     -342.154089 | <-- min LBFGS
 +------------+-------------+-------------+-----------------+ <-- min LBFGS
  
 LBFGS: finished iteration     7 with enthalpy= -3.42154089E+002 eV
  
 +-----------+-----------------+-----------------+------------+-----+ <-- LBFGS
 | Parameter |      value      |    tolerance    |    units   | OK? | <-- LBFGS
 +-----------+-----------------+-----------------+------------+-----+ <-- LBFGS
 |  dE/ion   |   2.357562E-003 |   2.000000E-005 |         eV | No  | <-- LBFGS
 |  |F|max   |   1.454592E-001 |   5.000000E-002 |       eV/A | No  | <-- LBFGS
 |  |dR|max  |   2.727552E-002 |   1.000000E-003 |          A | No  | <-- LBFGS
 +-----------+-----------------+-----------------+------------+-----+ <-- LBFGS
  

================================================================================
 Starting LBFGS iteration          8 ...
================================================================================
  
 +------------+-------------+-------------+-----------------+ <-- min LBFGS
 |    Step    |   lambda    |   F.delta'  |    enthalpy     | <-- min LBFGS
 +------------+-------------+-------------+-----------------+ <-- min LBFGS
 |  previous  |    0.000000 |    0.017986 |     -342.154089 | <-- min LBFGS
 +------------+-------------+-------------+-----------------+ <-- min LBFGS
  

--------------------------------------------------------------------------------
 LBFGS: starting iteration         8 with trial guess (lambda=  1.000000)
--------------------------------------------------------------------------------
 
                           -------------------------------
                                     Cell Contents
                           -------------------------------
 
            xxxxxxxxxxxxxxxxxxxxxxxxxxxxxxxxxxxxxxxxxxxxxxxxxxxxxxxxxxxxxxxxx
            x  Element         Atom        Fractional coordinates of atoms  x
            x                 Number           u          v          w      x
            x---------------------------------------------------------------x
            x  Si                1         0.032876  -0.006115  -0.008830   x
            x  Si                2         0.144718   0.289459   0.288294   x
            x  H:mu              1         0.589431   0.244051   0.189097   x
            xxxxxxxxxxxxxxxxxxxxxxxxxxxxxxxxxxxxxxxxxxxxxxxxxxxxxxxxxxxxxxxxx
 
 
------------------------------------------------------------------------ <-- SCF
SCF loop      Energy                           Energy gain       Timer   <-- SCF
                                               per atom          (sec)   <-- SCF
------------------------------------------------------------------------ <-- SCF
Initial  -3.42151077E+002                                          7.27  <-- SCF
      1  -3.42154381E+002                    1.10146013E-003       7.28  <-- SCF
      2  -3.42154387E+002                    1.86231255E-006       7.28  <-- SCF
      3  -3.42154352E+002                   -1.15267838E-005       7.29  <-- SCF
      4  -3.42154348E+002                   -1.36970816E-006       7.30  <-- SCF
      5  -3.42154348E+002                    6.62925071E-008       7.30  <-- SCF
      6  -3.42154348E+002                   -5.84428147E-009       7.31  <-- SCF
      7  -3.42154348E+002                    2.29322631E-009       7.32  <-- SCF
------------------------------------------------------------------------ <-- SCF
 
Final energy =  -342.1543480963     eV
(energy not corrected for finite basis set)
 
 
 ************************************** Forces **************************************
 *                                                                                  *
 *                           Cartesian components (eV/A)                            *
 * -------------------------------------------------------------------------------- *
 *                         x                    y                    z              *
 *                                                                                  *
 * Si              1     -0.05288              0.03949             -0.01215         *
 * Si              2      0.06282             -0.03849              0.00641         *
 * H:mu            1     -0.00994             -0.00100              0.00574         *
 *                                                                                  *
 ************************************************************************************
  
 +------------+-------------+-------------+-----------------+ <-- min LBFGS
 |    Step    |   lambda    |   F.delta'  |    enthalpy     | <-- min LBFGS
 +------------+-------------+-------------+-----------------+ <-- min LBFGS
 |  previous  |    0.000000 |    0.017986 |     -342.154089 | <-- min LBFGS
 | trial step |    1.000000 |    0.003179 |     -342.154348 | <-- min LBFGS
 +------------+-------------+-------------+-----------------+ <-- min LBFGS
  
 LBFGS: finished iteration     8 with enthalpy= -3.42154348E+002 eV
  
 +-----------+-----------------+-----------------+------------+-----+ <-- LBFGS
 | Parameter |      value      |    tolerance    |    units   | OK? | <-- LBFGS
 +-----------+-----------------+-----------------+------------+-----+ <-- LBFGS
 |  dE/ion   |   8.631372E-005 |   2.000000E-005 |         eV | No  | <-- LBFGS
 |  |F|max   |   7.395475E-002 |   5.000000E-002 |       eV/A | No  | <-- LBFGS
 |  |dR|max  |   2.292055E-003 |   1.000000E-003 |          A | No  | <-- LBFGS
 +-----------+-----------------+-----------------+------------+-----+ <-- LBFGS
  

================================================================================
 Starting LBFGS iteration          9 ...
================================================================================
  
 +------------+-------------+-------------+-----------------+ <-- min LBFGS
 |    Step    |   lambda    |   F.delta'  |    enthalpy     | <-- min LBFGS
 +------------+-------------+-------------+-----------------+ <-- min LBFGS
 |  previous  |    0.000000 |    0.008312 |     -342.154348 | <-- min LBFGS
 +------------+-------------+-------------+-----------------+ <-- min LBFGS
  

--------------------------------------------------------------------------------
 LBFGS: starting iteration         9 with trial guess (lambda=  1.000000)
--------------------------------------------------------------------------------
 
                           -------------------------------
                                     Cell Contents
                           -------------------------------
 
            xxxxxxxxxxxxxxxxxxxxxxxxxxxxxxxxxxxxxxxxxxxxxxxxxxxxxxxxxxxxxxxxx
            x  Element         Atom        Fractional coordinates of atoms  x
            x                 Number           u          v          w      x
            x---------------------------------------------------------------x
            x  Si                1         0.032829  -0.006276  -0.008752   x
            x  Si                2         0.144866   0.289529   0.288141   x
            x  H:mu              1         0.589330   0.244142   0.189172   x
            xxxxxxxxxxxxxxxxxxxxxxxxxxxxxxxxxxxxxxxxxxxxxxxxxxxxxxxxxxxxxxxxx
 
 
------------------------------------------------------------------------ <-- SCF
SCF loop      Energy                           Energy gain       Timer   <-- SCF
                                               per atom          (sec)   <-- SCF
------------------------------------------------------------------------ <-- SCF
Initial  -3.42152428E+002                                          7.35  <-- SCF
      1  -3.42154404E+002                    6.58704585E-004       7.35  <-- SCF
      2  -3.42154405E+002                    2.05152422E-007       7.36  <-- SCF
      3  -3.42154402E+002                   -1.10680205E-006       7.37  <-- SCF
      4  -3.42154401E+002                   -1.32854236E-007       7.38  <-- SCF
      5  -3.42154401E+002                    3.85039090E-009       7.38  <-- SCF
      6  -3.42154401E+002                    1.13115333E-009       7.39  <-- SCF
------------------------------------------------------------------------ <-- SCF
 
Final energy =  -342.1544011928     eV
(energy not corrected for finite basis set)
 
 
 ************************************** Forces **************************************
 *                                                                                  *
 *                           Cartesian components (eV/A)                            *
 * -------------------------------------------------------------------------------- *
 *                         x                    y                    z              *
 *                                                                                  *
 * Si              1     -0.02213              0.02700             -0.00416         *
 * Si              2      0.02764             -0.03086              0.00318         *
 * H:mu            1     -0.00551              0.00386              0.00098         *
 *                                                                                  *
 ************************************************************************************
  
 +------------+-------------+-------------+-----------------+ <-- min LBFGS
 |    Step    |   lambda    |   F.delta'  |    enthalpy     | <-- min LBFGS
 +------------+-------------+-------------+-----------------+ <-- min LBFGS
 |  previous  |    0.000000 |    0.008312 |     -342.154348 | <-- min LBFGS
 | trial step |    1.000000 |    0.003549 |     -342.154401 | <-- min LBFGS
 +------------+-------------+-------------+-----------------+ <-- min LBFGS
  
 LBFGS: finished iteration     9 with enthalpy= -3.42154401E+002 eV
  
 +-----------+-----------------+-----------------+------------+-----+ <-- LBFGS
 | Parameter |      value      |    tolerance    |    units   | OK? | <-- LBFGS
 +-----------+-----------------+-----------------+------------+-----+ <-- LBFGS
 |  dE/ion   |   1.769885E-005 |   2.000000E-005 |         eV | Yes | <-- LBFGS
 |  |F|max   |   4.155137E-002 |   5.000000E-002 |       eV/A | Yes | <-- LBFGS
 |  |dR|max  |   6.287498E-004 |   1.000000E-003 |          A | Yes | <-- LBFGS
 +-----------+-----------------+-----------------+------------+-----+ <-- LBFGS
  
 LBFGS: Geometry optimization completed successfully.

================================================================================
 LBFGS: Final Configuration:
================================================================================
 
                           -------------------------------
                                     Cell Contents
                           -------------------------------
 
            xxxxxxxxxxxxxxxxxxxxxxxxxxxxxxxxxxxxxxxxxxxxxxxxxxxxxxxxxxxxxxxxx
            x  Element         Atom        Fractional coordinates of atoms  x
            x                 Number           u          v          w      x
            x---------------------------------------------------------------x
            x  Si                1         0.032829  -0.006276  -0.008752   x
            x  Si                2         0.144866   0.289529   0.288141   x
            x  H:mu              1         0.589330   0.244142   0.189172   x
            xxxxxxxxxxxxxxxxxxxxxxxxxxxxxxxxxxxxxxxxxxxxxxxxxxxxxxxxxxxxxxxxx
 
 
 LBFGS: Final Enthalpy     = -3.42154401E+002 eV
 LBFGS: Final <frequency>  =    1125.13687 cm-1
 
 ************************************** Forces **************************************
 *                                                                                  *
 *                           Cartesian components (eV/A)                            *
 * -------------------------------------------------------------------------------- *
 *                         x                    y                    z              *
 *                                                                                  *
 * Si              1     -0.02213              0.02700             -0.00416         *
 * Si              2      0.02764             -0.03086              0.00318         *
 * H:mu            1     -0.00551              0.00386              0.00098         *
 *                                                                                  *
 ************************************************************************************
 
 Pseudo atomic calculation performed for Si 3s2 3p2
 
 Converged in 21 iterations to a total energy of -162.9266 eV
 
 Pseudo atomic calculation performed for H:mu 1s1
 
 Converged in 18 iterations to a total energy of -11.6786 eV
Charge spilling parameter for spin component 1 = 2.32%
 
            Orbital Populations       
     Ion    Atom   Orbital             Charge
  -------------------------------------------
     Si     1      S                    0.983
     Si     1      Px                   0.714
     Si     1      Py                   0.774
     Si     1      Pz                   0.911
     Si     2      S                    0.980
     Si     2      Px                   0.899
     Si     2      Py                   0.868
     Si     2      Pz                   0.658
   H:mu     1      S                    1.214
  -------------------------------------------
                           Total:       8.000
  -------------------------------------------
 
     Atomic Populations (Mulliken)
     -----------------------------
Species          Ion     s      p      d      f     Total  Charge (e)
=====================================================================
  Si              1     0.98   2.40   0.00   0.00   3.38     0.62
  Si              2     0.98   2.42   0.00   0.00   3.40     0.60
  H:mu            1     1.21   0.00   0.00   0.00   1.21    -0.21
=====================================================================
 
                 Bond                   Population      Length (A)
======================================================================
              Si 1 -- H:mu 1                -1.73        1.47291
              Si 2 -- H:mu 1                -1.77        1.47506
              Si 1 -- Si 2                   2.84        2.22534
======================================================================
 

Writing analysis data to ./castep-pymuonsuite-test-data/muon-airss-out-castep/castep/Si2_19/Si2_19.castep_bin

Writing model to ./castep-pymuonsuite-test-data/muon-airss-out-castep/castep/Si2_19/Si2_19.check
 
 A BibTeX formatted list of references used in this run has been written to 
 ./castep-pymuonsuite-test-data/muon-airss-out-castep/castep/Si2_19/Si2_19.bib
 
Initialisation time =      5.29 s
Calculation time    =      2.36 s
Finalisation time   =      0.13 s
Total time          =      7.78 s
Peak Memory Use     = 814168 kB
  
Overall parallel efficiency rating: Terrible (30%)                              
  
Data was distributed by:-
G-vector (8-way); efficiency rating: Terrible (31%)                             
  
Parallel notes:
1) Calculation only took 7.7 s, so efficiency estimates may be inaccurate.      
