 +-------------------------------------------------+
 |                                                 |
 |      CCC   AA    SSS  TTTTT  EEEEE  PPPP        |
 |     C     A  A  S       T    E      P   P       |
 |     C     AAAA   SS     T    EEE    PPPP        |
 |     C     A  A     S    T    E      P           |
 |      CCC  A  A  SSS     T    EEEEE  P           |
 |                                                 |
 +-------------------------------------------------+
 |                                                 |
 | Welcome to Academic Release CASTEP version 19.11|          
 | Ab Initio Total Energy Program                  |
 |                                                 |
 | Authors:                                        |
 | M. Segall, M. Probert, C. Pickard, P. Hasnip,   |
 | S. Clark, K. Refson, J. R. Yates, M. Payne      |
 |                                                 |
 | Contributors:                                   |
 | P. Lindan, P. Haynes, J. White, V. Milman,      |
 | N. Govind, M. Gibson, P. Tulip, V. Cocula,      |
 | B. Montanari, D. Quigley, M. Glover,            |
 | L. Bernasconi, A. Perlov, M. Plummer,           |
 | E. McNellis, J. Meyer, J. Gale, D. Jochym       |
 | J. Aarons, B. Walker, R. Gillen, D. Jones       |
 | T. Green, I. J. Bush, C. J. Armstrong,          |
 | E. J. Higgins, E. L. Brown, M. S. McFly,        |
 | J. Wilkins, B-C. Shih, P. J. P. Byrne           |
 |                                                 |
 | Copyright (c) 2000 - 2018                       |
 |                                                 |
 |     Distributed under the terms of an           |
 |     Agreement between the United Kingdom        |
 |     Car-Parrinello (UKCP) Consortium,           |
 |     Daresbury Laboratory and Accelrys, Inc.     |
 |                                                 |
 | Please cite                                     |
 |                                                 |
 |     "First principles methods using CASTEP"     |
 |                                                 |
 |         Zeitschrift fuer Kristallographie       |
 |           220(5-6) pp. 567-570 (2005)           |
 |                                                 |
 | S. J. Clark, M. D. Segall, C. J. Pickard,       |
 | P. J. Hasnip, M. J. Probert, K. Refson,         |
 | M. C. Payne                                     |
 |                                                 |
 |       in all publications arising from          |
 |              your use of CASTEP                 |
 |                                                 |
 +-------------------------------------------------+
 |                                                 |
 |              http://www.castep.org              |
 |                                                 |
 +-------------------------------------------------+
 
 
 
 Compiled for linux_x86_64_ifort18 on Fri, 05 Jul 2019 15:43:56 +0100
 from code version 
 0a9e5daac2f4+ Castep191_branch Wed, 03 Jul 2019 08:43:28 +0000
 Compiler: Intel Fortran 18.0.3.222; Optimisation: fast
 MATHLIBS: Intel MKL(2018.0.3) (LAPACK version 3.7.0)
 FFT Lib : default
 Fundamental constants values: CODATA 2014
 
 Run started: Tue, 17 Nov 2020 15:10:35 +0000
 
 Atomic calculation performed for Si: 1s2 2s2 2p6 3s2 3p2
 
 Converged in 55 iterations to an ae energy of -7859.183 eV
 
   ============================================================                
   | Pseudopotential Report - Date of generation 17-11-2020   |                
   ------------------------------------------------------------                
   | Element: Si Ionic charge:  4.00 Level of theory: LDA     |                
   | Atomic Solver: Koelling-Harmon                           |                
   |                                                          |                
   |               Reference Electronic Structure             |                
   |         Orbital         Occupation         Energy        |                
   |            3s              2.000           -0.400        |                
   |            3p              2.000           -0.153        |                
   |                                                          |                
   |                 Pseudopotential Definition               |                
   |        Beta     l      e      Rc     scheme   norm       |                
   |          1      0   -0.400   1.797     qc      0         |                
   |          2      0    0.250   1.797     qc      0         |                
   |          3      1   -0.153   1.797     qc      0         |                
   |          4      1    0.250   1.797     qc      0         |                
   |          5      2    0.000   1.797     qc      0         |                
   |          6      2    0.250   1.797     qc      0         |                
   |         loc     3    0.000   1.797     pn      0         |                
   |                                                          |                
   | Augmentation charge Rinner = 1.255                       |                
   | Partial core correction Rc = 1.255                       |                
   ------------------------------------------------------------                
   | "3|1.8|5|6|7|30:31:32"                                   |                
   ------------------------------------------------------------                
   |      Author: Chris J. Pickard, Cambridge University      |                
   ============================================================                
 
 Atomic calculation performed for H:mu: 1s1
 
 Converged in 41 iterations to an ae energy of -12.134 eV
 
   ============================================================                
   | Pseudopotential Report - Date of generation 17-11-2020   |                
   ------------------------------------------------------------                
   | Element: H Ionic charge:  1.00 Level of theory: LDA      |                
   | Atomic Solver: Koelling-Harmon                           |                
   |                                                          |                
   |               Reference Electronic Structure             |                
   |         Orbital         Occupation         Energy        |                
   |            1s              1.000           -0.234        |                
   |                                                          |                
   |                 Pseudopotential Definition               |                
   |        Beta     l      e      Rc     scheme   norm       |                
   |          1      0   -0.234   0.599     qc      0         |                
   |          2      0    0.250   0.599     qc      0         |                
   |         loc     1    0.000   0.599     pn      0         |                
   |                                                          |                
   | Augmentation charge Rinner = 0.421                       |                
   | No partial core correction                               |                
   ------------------------------------------------------------                
   | "1|0.6|13|15|17|10(qc=8)"                                |                
   ------------------------------------------------------------                
   |      Author: Chris J. Pickard, Cambridge University      |                
   ============================================================                
 
 Pseudo atomic calculation performed for Si 3s2 3p2
 
 Converged in 21 iterations to a total energy of -162.9266 eV
 
 Pseudo atomic calculation performed for H:mu 1s1
 
 Converged in 18 iterations to a total energy of -11.6786 eV
 Calculation parallelised over 8 processes.
 Data is distributed by G-vector(8-way)

 ************************************ Title ************************************
 

 ***************************** General Parameters ******************************
  
 output verbosity                               : normal  (1)
 write checkpoint data to                       : ./castep-pymuonsuite-test-data/muon-airss-out-castep/castep/Si2_9/Si2_9.check
 type of calculation                            : geometry optimization
 stress calculation                             : off
 density difference calculation                 : off
 electron localisation func (ELF) calculation   : off
 Hirshfeld analysis                             : off
 unlimited duration calculation
 timing information                             : on
 memory usage estimate                          : on
 write extra output files                       : on
 write final potential to formatted file        : off
 write final density to formatted file          : on
 write structure in CELL formatted file         : on
 write BibTeX reference list                    : on
 write OTFG pseudopotential files               : on
 write electrostatic potential file             : on
 write bands file                               : on
 checkpoint writing                             : both castep_bin and check files
  
 output         length unit                     : A
 output           mass unit                     : amu
 output           time unit                     : ps
 output         charge unit                     : e
 output           spin unit                     : hbar/2
 output         energy unit                     : eV
 output          force unit                     : eV/A
 output       velocity unit                     : A/ps
 output       pressure unit                     : GPa
 output     inv_length unit                     : 1/A
 output      frequency unit                     : cm-1
 output force constant unit                     : eV/A**2
 output         volume unit                     : A**3
 output   IR intensity unit                     : (D/A)**2/amu
 output         dipole unit                     : D
 output         efield unit                     : eV/A/e
 output        entropy unit                     : J/mol/K
  
 wavefunctions paging                           : none
 random number generator seed                   : randomised (151035717)
 data distribution                              : optimal for this architecture
 optimization strategy                          : maximize speed(+++)

 *********************** Exchange-Correlation Parameters ***********************
  
 using functional                               : Local Density Approximation
 relativistic treatment                         : Koelling-Harmon
 DFT+D: Semi-empirical dispersion correction    : off

 ************************* Pseudopotential Parameters **************************
  
 pseudopotential representation                 : reciprocal space
 <beta|phi> representation                      : reciprocal space
 spin-orbit coupling                            : off

 **************************** Basis Set Parameters *****************************
  
 plane wave basis set cut-off                   :   150.0000   eV
 size of standard grid                          :     2.0000
 size of   fine   gmax                          :    12.5491   1/A
 finite basis set correction                    : none

 **************************** Electronic Parameters ****************************
  
 number of  electrons                           :  8.000    
 net charge of system                           : +1.000    
 treating system as non-spin-polarized
 number of bands                                :          4

 ********************* Electronic Minimization Parameters **********************
  
 Method: Treating system as non-metallic,
         and number of  SD  steps               :          1
         and number of  CG  steps               :          4
  
 total energy / atom convergence tol.           : 0.1000E-07   eV
 eigen-energy convergence tolerance             : 0.7500E-08   eV
 max force / atom convergence tol.              : ignored
 convergence tolerance window                   :          3   cycles
 max. number of SCF cycles                      :        200
 periodic dipole correction                     : NONE

 ************************** Density Mixing Parameters **************************
  
 density-mixing scheme                          : Broyden
 max. length of mixing history                  :         20
 charge density mixing amplitude                : 0.8000    
 cut-off energy for mixing                      :  150.0       eV

 *********************** Population Analysis Parameters ************************
  
 Population analysis with cutoff                :  3.000       A
 Population analysis output                     : summary and pdos components

 ********************** Geometry Optimization Parameters ***********************
  
 optimization method                            : LBFGS
 max. no. of LBFGS updates                      : unbounded
 variable cell method                           : fixed basis quality
 max. number of steps                           :        300
 estimated bulk modulus                         :  500.0       GPa
 estimated <frequency>                          :  1668.       cm-1
 geom line minimiser                            : on
 with line minimiser tolerance                  :     0.4000
 total energy convergence tolerance             : 0.2000E-04   eV/atom
        max ionic |force| tolerance             : 0.5000E-01   eV/A
 max ionic |displacement| tolerance             : 0.1000E-02   A
   max |stress component| tolerance             : 0.1000       GPa
 convergence tolerance window                   :          2   steps
 backup results every                           :          5   steps
 write geom trajectory file                     : on

 *******************************************************************************
  
 
                           -------------------------------
                                      Unit Cell
                           -------------------------------
        Real Lattice(A)                      Reciprocal Lattice(1/A)
     2.6954640     2.6954640     0.0000000        1.165510893   1.165510893  -1.165510893
     2.6954640     0.0000000     2.6954640        1.165510893  -1.165510893   1.165510893
     0.0000000     2.6954640     2.6954640       -1.165510893   1.165510893   1.165510893
 
                       Lattice parameters(A)       Cell Angles
                    a =      3.811962          alpha =   60.000000
                    b =      3.811962          beta  =   60.000000
                    c =      3.811962          gamma =   60.000000
 
                       Current cell volume =            39.167928       A**3
                                   density =             1.459841   AMU/A**3
                                           =             2.424123     g/cm^3
 
                           -------------------------------
                                     Cell Contents
                           -------------------------------
                         Total number of ions in cell =    3
                      Total number of species in cell =    2
                        Max number of any one species =    2
 
            xxxxxxxxxxxxxxxxxxxxxxxxxxxxxxxxxxxxxxxxxxxxxxxxxxxxxxxxxxxx
            x  Element    Atom        Fractional coordinates of atoms  x
            x            Number           u          v          w      x
            x----------------------------------------------------------x
            x  Si           1         0.000000   0.000000   0.000000   x 
            x  Si           2         0.250000   0.250000   0.250000   x 
            x  H:mu         1         0.846899   0.607119   0.646599   x 
            xxxxxxxxxxxxxxxxxxxxxxxxxxxxxxxxxxxxxxxxxxxxxxxxxxxxxxxxxxxx
 
 
                         No user defined ionic velocities
 
                           -------------------------------
                                   Details of Species
                           -------------------------------
 
                               Mass of species in AMU
                                    Si   28.0855000
                                    H:mu    0.1134289
 
                          Electric Quadrupole Moment (Barn)
                                    Si    1.0000000 No Isotope Defined
                                    H:mu    0.0028600 Isotope  2
 
                          Files used for pseudopotentials:
                                    Si 3|1.8|5|6|7|30:31:32
                                    H:mu 1|0.6|13|15|17|10(qc=8)
 
                           -------------------------------
                              k-Points For BZ Sampling
                           -------------------------------
                       MP grid size for SCF calculation is  1  1  1
                            with an offset of   0.000  0.000  0.000
                       Number of kpoints used =             1
 
                           -------------------------------
                               Symmetry and Constraints
                           -------------------------------
 
                      Maximum deviation from symmetry =  0.00000         ANG
 
                      Number of symmetry operations   =           1
                      Number of ionic constraints     =           3
                      Point group of crystal =     1: C1, 1, 1
                      Space group of crystal =     1: P1, P 1
 
             Set iprint > 1 for details on symmetry rotations/translations
 
                         Centre of mass is constrained
             Set iprint > 1 for details of linear ionic constraints
 
                         Number of cell constraints= 6
                         Cell constraints are:  0 0 0 0 0 0
 
                         External pressure/stress (GPa)
                          0.00000   0.00000   0.00000
                                    0.00000   0.00000
                                              0.00000
  
+---------------- MEMORY AND SCRATCH DISK ESTIMATES PER PROCESS --------------+
|                                                     Memory          Disk    |
| Baseline code, static data and system overhead      464.0 MB         0.0 MB |
| BLAS internal memory storage                          0.0 MB         0.0 MB |
| Model and support data                               25.0 MB         0.0 MB |
| Electronic energy minimisation requirements           0.2 MB         0.0 MB |
| Force calculation requirements                        0.1 MB         0.0 MB |
|                                               ----------------------------- |
| Approx. total storage required per process          489.2 MB         0.0 MB |
|                                                                             |
| Requirements will fluctuate during execution and may exceed these estimates |
+-----------------------------------------------------------------------------+
Calculating total energy with cut-off of  150.000 eV.
------------------------------------------------------------------------ <-- SCF
SCF loop      Energy                           Energy gain       Timer   <-- SCF
                                               per atom          (sec)   <-- SCF
------------------------------------------------------------------------ <-- SCF
Initial  -8.15622654E+001                                          5.70  <-- SCF
      1  -3.09322061E+002                    7.59199318E+001       5.71  <-- SCF
      2  -3.37631629E+002                    9.43652278E+000       5.71  <-- SCF
      3  -3.39396606E+002                    5.88325482E-001       5.72  <-- SCF
      4  -3.38542585E+002                   -2.84673500E-001       5.73  <-- SCF
      5  -3.38656650E+002                    3.80216750E-002       5.74  <-- SCF
      6  -3.38514454E+002                   -4.73987362E-002       5.75  <-- SCF
      7  -3.38487224E+002                   -9.07675176E-003       5.76  <-- SCF
      8  -3.38358986E+002                   -4.27458118E-002       5.77  <-- SCF
      9  -3.38377992E+002                    6.33524302E-003       5.78  <-- SCF
     10  -3.38333357E+002                   -1.48784398E-002       5.79  <-- SCF
     11  -3.38781298E+002                    1.49313814E-001       5.80  <-- SCF
     12  -3.38367166E+002                   -1.38044103E-001       5.81  <-- SCF
     13  -3.39002959E+002                    2.11931264E-001       5.82  <-- SCF
     14  -3.38658926E+002                   -1.14677922E-001       5.83  <-- SCF
     15  -3.38414598E+002                   -8.14424874E-002       5.84  <-- SCF
     16  -3.38329059E+002                   -2.85131465E-002       5.86  <-- SCF
     17  -3.38261465E+002                   -2.25312330E-002       5.87  <-- SCF
     18  -3.38241901E+002                   -6.52123129E-003       5.88  <-- SCF
     19  -3.38248790E+002                    2.29605617E-003       5.89  <-- SCF
     20  -3.38231821E+002                   -5.65625214E-003       5.90  <-- SCF
     21  -3.38239095E+002                    2.42459086E-003       5.91  <-- SCF
     22  -3.38235995E+002                   -1.03313244E-003       5.92  <-- SCF
     23  -3.38232154E+002                   -1.28037556E-003       5.93  <-- SCF
     24  -3.38226447E+002                   -1.90247761E-003       5.94  <-- SCF
     25  -3.38423840E+002                    6.57976468E-002       5.96  <-- SCF
     26  -3.38231618E+002                   -6.40738789E-002       5.97  <-- SCF
     27  -3.38348874E+002                    3.90854082E-002       5.98  <-- SCF
     28  -3.38319951E+002                   -9.64109748E-003       5.99  <-- SCF
     29  -3.38362653E+002                    1.42342041E-002       6.00  <-- SCF
     30  -3.38509618E+002                    4.89881472E-002       6.02  <-- SCF
     31  -3.38284207E+002                   -7.51369585E-002       6.03  <-- SCF
     32  -3.38225388E+002                   -1.96063116E-002       6.04  <-- SCF
     33  -3.38412464E+002                    6.23584900E-002       6.05  <-- SCF
     34  -3.38188337E+002                   -7.47089204E-002       6.06  <-- SCF
     35  -3.38620904E+002                    1.44189146E-001       6.07  <-- SCF
     36  -3.38467170E+002                   -5.12448055E-002       6.08  <-- SCF
     37  -3.38720623E+002                    8.44843682E-002       6.10  <-- SCF
     38  -3.38902735E+002                    6.07040321E-002       6.11  <-- SCF
     39  -3.38346375E+002                   -1.85453264E-001       6.12  <-- SCF
     40  -3.38292492E+002                   -1.79610503E-002       6.13  <-- SCF
     41  -3.38276821E+002                   -5.22370381E-003       6.14  <-- SCF
     42  -3.38260608E+002                   -5.40441421E-003       6.15  <-- SCF
     43  -3.38236884E+002                   -7.90780136E-003       6.17  <-- SCF
     44  -3.38235139E+002                   -5.81787521E-004       6.18  <-- SCF
     45  -3.38242537E+002                    2.46592604E-003       6.19  <-- SCF
     46  -3.38544492E+002                    1.00651623E-001       6.20  <-- SCF
     47  -3.38302537E+002                   -8.06514066E-002       6.21  <-- SCF
     48  -3.40263898E+002                    6.53786771E-001       6.23  <-- SCF
     49  -3.39331210E+002                   -3.10895744E-001       6.24  <-- SCF
     50  -3.39118713E+002                   -7.08325566E-002       6.25  <-- SCF
     51  -3.38544379E+002                   -1.91444748E-001       6.26  <-- SCF
     52  -3.38395737E+002                   -4.95472028E-002       6.27  <-- SCF
     53  -3.38255465E+002                   -4.67572816E-002       6.28  <-- SCF
     54  -3.38318122E+002                    2.08855583E-002       6.30  <-- SCF
     55  -3.38233305E+002                   -2.82722811E-002       6.31  <-- SCF
     56  -3.38585061E+002                    1.17251913E-001       6.32  <-- SCF
     57  -3.38377643E+002                   -6.91392214E-002       6.33  <-- SCF
     58  -3.39216048E+002                    2.79468473E-001       6.34  <-- SCF
     59  -3.38699333E+002                   -1.72238630E-001       6.35  <-- SCF
     60  -3.38379103E+002                   -1.06743039E-001       6.37  <-- SCF
     61  -3.38448166E+002                    2.30209184E-002       6.38  <-- SCF
     62  -3.38298815E+002                   -4.97835821E-002       6.39  <-- SCF
     63  -3.38415177E+002                    3.87870914E-002       6.40  <-- SCF
     64  -3.38236252E+002                   -5.96415765E-002       6.42  <-- SCF
     65  -3.38247098E+002                    3.61537353E-003       6.43  <-- SCF
     66  -3.38243267E+002                   -1.27695708E-003       6.44  <-- SCF
     67  -3.38365544E+002                    4.07587989E-002       6.45  <-- SCF
     68  -3.38130061E+002                   -7.84942300E-002       6.46  <-- SCF
     69  -3.39613676E+002                    4.94538454E-001       6.47  <-- SCF
     70  -3.39086949E+002                   -1.75575721E-001       6.49  <-- SCF
     71  -3.39392001E+002                    1.01684064E-001       6.50  <-- SCF
     72  -3.38727047E+002                   -2.21651451E-001       6.51  <-- SCF
     73  -3.38945688E+002                    7.28804140E-002       6.52  <-- SCF
     74  -3.38456513E+002                   -1.63058466E-001       6.53  <-- SCF
     75  -3.38403712E+002                   -1.76002190E-002       6.54  <-- SCF
     76  -3.38337829E+002                   -2.19611471E-002       6.56  <-- SCF
     77  -3.38234562E+002                   -3.44224078E-002       6.57  <-- SCF
     78  -3.38291445E+002                    1.89611673E-002       6.58  <-- SCF
     79  -3.38236632E+002                   -1.82709637E-002       6.59  <-- SCF
     80  -3.38259836E+002                    7.73460493E-003       6.60  <-- SCF
     81  -3.38266399E+002                    2.18766101E-003       6.62  <-- SCF
     82  -3.38576985E+002                    1.03528777E-001       6.63  <-- SCF
     83  -3.38569718E+002                   -2.42234770E-003       6.64  <-- SCF
     84  -3.39306301E+002                    2.45527608E-001       6.65  <-- SCF
     85  -3.38607540E+002                   -2.32920190E-001       6.66  <-- SCF
     86  -3.38322100E+002                   -9.51469553E-002       6.67  <-- SCF
     87  -3.38639923E+002                    1.05941213E-001       6.68  <-- SCF
     88  -3.38210837E+002                   -1.43028735E-001       6.69  <-- SCF
     89  -3.38655662E+002                    1.48274975E-001       6.71  <-- SCF
     90  -3.38517957E+002                   -4.59018112E-002       6.72  <-- SCF
     91  -3.38384351E+002                   -4.45350118E-002       6.73  <-- SCF
     92  -3.38358822E+002                   -8.50980738E-003       6.74  <-- SCF
     93  -3.38363932E+002                    1.70321638E-003       6.76  <-- SCF
     94  -3.38253150E+002                   -3.69270809E-002       6.77  <-- SCF
     95  -3.38655898E+002                    1.34249068E-001       6.78  <-- SCF
     96  -3.38240537E+002                   -1.38453653E-001       6.79  <-- SCF
     97  -3.38754521E+002                    1.71328251E-001       6.80  <-- SCF
     98  -3.38413062E+002                   -1.13819976E-001       6.81  <-- SCF
     99  -3.38402822E+002                   -3.41314191E-003       6.83  <-- SCF
    100  -3.38280780E+002                   -4.06807045E-002       6.84  <-- SCF
    101  -3.38269284E+002                   -3.83187174E-003       6.85  <-- SCF
    102  -3.38250041E+002                   -6.41451960E-003       6.86  <-- SCF
    103  -3.38246168E+002                   -1.29102135E-003       6.88  <-- SCF
    104  -3.38291616E+002                    1.51495430E-002       6.89  <-- SCF
    105  -3.38330816E+002                    1.30664622E-002       6.90  <-- SCF
    106  -3.38648077E+002                    1.05753691E-001       6.91  <-- SCF
    107  -3.38578921E+002                   -2.30518958E-002       6.92  <-- SCF
    108  -3.39849088E+002                    4.23389020E-001       6.94  <-- SCF
    109  -3.38574775E+002                   -4.24771058E-001       6.95  <-- SCF
    110  -3.38463906E+002                   -3.69564198E-002       6.96  <-- SCF
    111  -3.38439132E+002                   -8.25776674E-003       6.97  <-- SCF
    112  -3.38624390E+002                    6.17524717E-002       6.98  <-- SCF
    113  -3.38555307E+002                   -2.30277367E-002       6.99  <-- SCF
    114  -3.38386063E+002                   -5.64146925E-002       7.00  <-- SCF
    115  -3.38390497E+002                    1.47798049E-003       7.02  <-- SCF
    116  -3.38536740E+002                    4.87477339E-002       7.03  <-- SCF
    117  -3.38310167E+002                   -7.55242381E-002       7.04  <-- SCF
    118  -3.38292999E+002                   -5.72255603E-003       7.05  <-- SCF
    119  -3.38302342E+002                    3.11430506E-003       7.06  <-- SCF
    120  -3.38246612E+002                   -1.85767166E-002       7.08  <-- SCF
    121  -3.38240666E+002                   -1.98206531E-003       7.09  <-- SCF
    122  -3.38237089E+002                   -1.19230879E-003       7.10  <-- SCF
    123  -3.38251899E+002                    4.93681497E-003       7.11  <-- SCF
    124  -3.38247578E+002                   -1.44038358E-003       7.13  <-- SCF
    125  -3.38255895E+002                    2.77231307E-003       7.14  <-- SCF
    126  -3.38253160E+002                   -9.11686624E-004       7.15  <-- SCF
    127  -3.38255724E+002                    8.54615739E-004       7.16  <-- SCF
    128  -3.38251522E+002                   -1.40058825E-003       7.17  <-- SCF
    129  -3.38296016E+002                    1.48313415E-002       7.19  <-- SCF
    130  -3.38288795E+002                   -2.40706278E-003       7.20  <-- SCF
    131  -3.38246342E+002                   -1.41511204E-002       7.21  <-- SCF
    132  -3.38292314E+002                    1.53239460E-002       7.22  <-- SCF
    133  -3.38299803E+002                    2.49631542E-003       7.23  <-- SCF
    134  -3.38351865E+002                    1.73541259E-002       7.24  <-- SCF
    135  -3.38264826E+002                   -2.90130364E-002       7.25  <-- SCF
    136  -3.38314180E+002                    1.64513903E-002       7.26  <-- SCF
    137  -3.38346496E+002                    1.07720474E-002       7.27  <-- SCF
    138  -3.37974521E+002                   -1.23991736E-001       7.28  <-- SCF
    139  -3.38749265E+002                    2.58248010E-001       7.30  <-- SCF
    140  -3.38696511E+002                   -1.75847602E-002       7.31  <-- SCF
    141  -3.38836009E+002                    4.64992885E-002       7.32  <-- SCF
    142  -3.38761980E+002                   -2.46762094E-002       7.33  <-- SCF
    143  -3.38574172E+002                   -6.26027015E-002       7.34  <-- SCF
    144  -3.38346549E+002                   -7.58743494E-002       7.36  <-- SCF
    145  -3.38412730E+002                    2.20605582E-002       7.37  <-- SCF
    146  -3.38286300E+002                   -4.21435310E-002       7.38  <-- SCF
    147  -3.38262896E+002                   -7.80139078E-003       7.39  <-- SCF
    148  -3.38238448E+002                   -8.14933799E-003       7.40  <-- SCF
    149  -3.38207971E+002                   -1.01587245E-002       7.41  <-- SCF
    150  -3.38728503E+002                    1.73510627E-001       7.42  <-- SCF
    151  -3.38391612E+002                   -1.12297181E-001       7.43  <-- SCF
    152  -3.38640959E+002                    8.31157699E-002       7.45  <-- SCF
    153  -3.38623596E+002                   -5.78767922E-003       7.46  <-- SCF
    154  -3.38479941E+002                   -4.78850471E-002       7.47  <-- SCF
    155  -3.38387450E+002                   -3.08303644E-002       7.48  <-- SCF
    156  -3.38304054E+002                   -2.77984807E-002       7.49  <-- SCF
    157  -3.38637167E+002                    1.11037623E-001       7.50  <-- SCF
    158  -3.38248184E+002                   -1.29661020E-001       7.51  <-- SCF
    159  -3.38234206E+002                   -4.65934055E-003       7.52  <-- SCF
    160  -3.38439036E+002                    6.82765988E-002       7.54  <-- SCF
    161  -3.38235254E+002                   -6.79273760E-002       7.55  <-- SCF
    162  -3.38887647E+002                    2.17464241E-001       7.56  <-- SCF
    163  -3.38473265E+002                   -1.38127170E-001       7.57  <-- SCF
    164  -3.38635043E+002                    5.39260186E-002       7.58  <-- SCF
    165  -3.38422453E+002                   -7.08633753E-002       7.60  <-- SCF
    166  -3.38258524E+002                   -5.46430027E-002       7.61  <-- SCF
    167  -3.38349679E+002                    3.03850891E-002       7.62  <-- SCF
    168  -3.38261299E+002                   -2.94599859E-002       7.63  <-- SCF
    169  -3.38284712E+002                    7.80407241E-003       7.64  <-- SCF
    170  -3.38198929E+002                   -2.85942751E-002       7.66  <-- SCF
    171  -3.38314135E+002                    3.84020221E-002       7.67  <-- SCF
    172  -3.38265941E+002                   -1.60646572E-002       7.68  <-- SCF
    173  -3.38260344E+002                   -1.86563882E-003       7.69  <-- SCF
    174  -3.38363579E+002                    3.44118450E-002       7.70  <-- SCF
    175  -3.38171237E+002                   -6.41140712E-002       7.71  <-- SCF
    176  -3.39640456E+002                    4.89739672E-001       7.72  <-- SCF
    177  -3.38662551E+002                   -3.25968301E-001       7.74  <-- SCF
    178  -3.39196346E+002                    1.77931603E-001       7.75  <-- SCF
    179  -3.38449175E+002                   -2.49057109E-001       7.76  <-- SCF
    180  -3.38319120E+002                   -4.33517064E-002       7.77  <-- SCF
    181  -3.38406695E+002                    2.91916407E-002       7.79  <-- SCF
    182  -3.38490401E+002                    2.79019918E-002       7.80  <-- SCF
    183  -3.38954703E+002                    1.54767450E-001       7.81  <-- SCF
    184  -3.38902086E+002                   -1.75389529E-002       7.82  <-- SCF
    185  -3.38684767E+002                   -7.24396378E-002       7.83  <-- SCF
    186  -3.38558221E+002                   -4.21819947E-002       7.85  <-- SCF
    187  -3.38611814E+002                    1.78642538E-002       7.86  <-- SCF
    188  -3.38517414E+002                   -3.14667776E-002       7.87  <-- SCF
    189  -3.38438963E+002                   -2.61503284E-002       7.88  <-- SCF
    190  -3.38431285E+002                   -2.55922539E-003       7.90  <-- SCF
    191  -3.38337863E+002                   -3.11405651E-002       7.91  <-- SCF
    192  -3.38357718E+002                    6.61823252E-003       7.92  <-- SCF
    193  -3.38311080E+002                   -1.55460629E-002       7.93  <-- SCF
    194  -3.38315909E+002                    1.60974743E-003       7.94  <-- SCF
    195  -3.38320917E+002                    1.66938712E-003       7.95  <-- SCF
    196  -3.38459361E+002                    4.61479108E-002       7.96  <-- SCF
    197  -3.38245080E+002                   -7.14270832E-002       7.97  <-- SCF
    198  -3.38556779E+002                    1.03899799E-001       7.99  <-- SCF
    199  -3.38261764E+002                   -9.83383737E-002       8.00  <-- SCF
    200  -3.38682306E+002                    1.40180581E-001       8.01  <-- SCF
------------------------------------------------------------------------ <-- SCF
 *Warning* max. SCF cycles performed but system has not reached the groundstate.
  
Current total energy =  -338.6823056467     eV
(energy not corrected for finite basis set)
 
  ****************************************************************************
  Warning: electronic minimisation did not converge when finding ground state.
  ****************************************************************************
  Writing checkpoint file...

Writing analysis data to ./castep-pymuonsuite-test-data/muon-airss-out-castep/castep/Si2_9/Si2_9.castep_bin

Writing model to ./castep-pymuonsuite-test-data/muon-airss-out-castep/castep/Si2_9/Si2_9.check
  
Overall parallel efficiency rating: Terrible (27%)                              
  
Data was distributed by:-
G-vector (8-way); efficiency rating: Terrible (27%)                             
  
Parallel notes:
1) Calculation only took 8.0 s, so efficiency estimates may be inaccurate.      
