 +-------------------------------------------------+
 |                                                 |
 |      CCC   AA    SSS  TTTTT  EEEEE  PPPP        |
 |     C     A  A  S       T    E      P   P       |
 |     C     AAAA   SS     T    EEE    PPPP        |
 |     C     A  A     S    T    E      P           |
 |      CCC  A  A  SSS     T    EEEEE  P           |
 |                                                 |
 +-------------------------------------------------+
 |                                                 |
 | Welcome to Academic Release CASTEP version 19.11|          
 | Ab Initio Total Energy Program                  |
 |                                                 |
 | Authors:                                        |
 | M. Segall, M. Probert, C. Pickard, P. Hasnip,   |
 | S. Clark, K. Refson, J. R. Yates, M. Payne      |
 |                                                 |
 | Contributors:                                   |
 | P. Lindan, P. Haynes, J. White, V. Milman,      |
 | N. Govind, M. Gibson, P. Tulip, V. Cocula,      |
 | B. Montanari, D. Quigley, M. Glover,            |
 | L. Bernasconi, A. Perlov, M. Plummer,           |
 | E. McNellis, J. Meyer, J. Gale, D. Jochym       |
 | J. Aarons, B. Walker, R. Gillen, D. Jones       |
 | T. Green, I. J. Bush, C. J. Armstrong,          |
 | E. J. Higgins, E. L. Brown, M. S. McFly,        |
 | J. Wilkins, B-C. Shih, P. J. P. Byrne           |
 |                                                 |
 | Copyright (c) 2000 - 2018                       |
 |                                                 |
 |     Distributed under the terms of an           |
 |     Agreement between the United Kingdom        |
 |     Car-Parrinello (UKCP) Consortium,           |
 |     Daresbury Laboratory and Accelrys, Inc.     |
 |                                                 |
 | Please cite                                     |
 |                                                 |
 |     "First principles methods using CASTEP"     |
 |                                                 |
 |         Zeitschrift fuer Kristallographie       |
 |           220(5-6) pp. 567-570 (2005)           |
 |                                                 |
 | S. J. Clark, M. D. Segall, C. J. Pickard,       |
 | P. J. Hasnip, M. J. Probert, K. Refson,         |
 | M. C. Payne                                     |
 |                                                 |
 |       in all publications arising from          |
 |              your use of CASTEP                 |
 |                                                 |
 +-------------------------------------------------+
 |                                                 |
 |              http://www.castep.org              |
 |                                                 |
 +-------------------------------------------------+
 
 
 
 Compiled for linux_x86_64_ifort18 on Fri, 05 Jul 2019 15:43:56 +0100
 from code version 
 0a9e5daac2f4+ Castep191_branch Wed, 03 Jul 2019 08:43:28 +0000
 Compiler: Intel Fortran 18.0.3.222; Optimisation: fast
 MATHLIBS: Intel MKL(2018.0.3) (LAPACK version 3.7.0)
 FFT Lib : default
 Fundamental constants values: CODATA 2014
 
 Run started: Tue, 17 Nov 2020 15:08:00 +0000
 
 Atomic calculation performed for Si: 1s2 2s2 2p6 3s2 3p2
 
 Converged in 55 iterations to an ae energy of -7859.183 eV
 
   ============================================================                
   | Pseudopotential Report - Date of generation 17-11-2020   |                
   ------------------------------------------------------------                
   | Element: Si Ionic charge:  4.00 Level of theory: LDA     |                
   | Atomic Solver: Koelling-Harmon                           |                
   |                                                          |                
   |               Reference Electronic Structure             |                
   |         Orbital         Occupation         Energy        |                
   |            3s              2.000           -0.400        |                
   |            3p              2.000           -0.153        |                
   |                                                          |                
   |                 Pseudopotential Definition               |                
   |        Beta     l      e      Rc     scheme   norm       |                
   |          1      0   -0.400   1.797     qc      0         |                
   |          2      0    0.250   1.797     qc      0         |                
   |          3      1   -0.153   1.797     qc      0         |                
   |          4      1    0.250   1.797     qc      0         |                
   |          5      2    0.000   1.797     qc      0         |                
   |          6      2    0.250   1.797     qc      0         |                
   |         loc     3    0.000   1.797     pn      0         |                
   |                                                          |                
   | Augmentation charge Rinner = 1.255                       |                
   | Partial core correction Rc = 1.255                       |                
   ------------------------------------------------------------                
   | "3|1.8|5|6|7|30:31:32"                                   |                
   ------------------------------------------------------------                
   |      Author: Chris J. Pickard, Cambridge University      |                
   ============================================================                
 
 Atomic calculation performed for H:mu: 1s1
 
 Converged in 41 iterations to an ae energy of -12.134 eV
 
   ============================================================                
   | Pseudopotential Report - Date of generation 17-11-2020   |                
   ------------------------------------------------------------                
   | Element: H Ionic charge:  1.00 Level of theory: LDA      |                
   | Atomic Solver: Koelling-Harmon                           |                
   |                                                          |                
   |               Reference Electronic Structure             |                
   |         Orbital         Occupation         Energy        |                
   |            1s              1.000           -0.234        |                
   |                                                          |                
   |                 Pseudopotential Definition               |                
   |        Beta     l      e      Rc     scheme   norm       |                
   |          1      0   -0.234   0.599     qc      0         |                
   |          2      0    0.250   0.599     qc      0         |                
   |         loc     1    0.000   0.599     pn      0         |                
   |                                                          |                
   | Augmentation charge Rinner = 0.421                       |                
   | No partial core correction                               |                
   ------------------------------------------------------------                
   | "1|0.6|13|15|17|10(qc=8)"                                |                
   ------------------------------------------------------------                
   |      Author: Chris J. Pickard, Cambridge University      |                
   ============================================================                
 
 Pseudo atomic calculation performed for Si 3s2 3p2
 
 Converged in 21 iterations to a total energy of -162.9266 eV
 
 Pseudo atomic calculation performed for H:mu 1s1
 
 Converged in 18 iterations to a total energy of -11.6786 eV
 Calculation parallelised over 8 processes.
 Data is distributed by G-vector(8-way)

 ************************************ Title ************************************
 

 ***************************** General Parameters ******************************
  
 output verbosity                               : normal  (1)
 write checkpoint data to                       : ./castep-pymuonsuite-test-data/muon-airss-out-castep/castep/Si2_14/Si2_14.check
 type of calculation                            : geometry optimization
 stress calculation                             : off
 density difference calculation                 : off
 electron localisation func (ELF) calculation   : off
 Hirshfeld analysis                             : off
 unlimited duration calculation
 timing information                             : on
 memory usage estimate                          : on
 write extra output files                       : on
 write final potential to formatted file        : off
 write final density to formatted file          : on
 write structure in CELL formatted file         : on
 write BibTeX reference list                    : on
 write OTFG pseudopotential files               : on
 write electrostatic potential file             : on
 write bands file                               : on
 checkpoint writing                             : both castep_bin and check files
  
 output         length unit                     : A
 output           mass unit                     : amu
 output           time unit                     : ps
 output         charge unit                     : e
 output           spin unit                     : hbar/2
 output         energy unit                     : eV
 output          force unit                     : eV/A
 output       velocity unit                     : A/ps
 output       pressure unit                     : GPa
 output     inv_length unit                     : 1/A
 output      frequency unit                     : cm-1
 output force constant unit                     : eV/A**2
 output         volume unit                     : A**3
 output   IR intensity unit                     : (D/A)**2/amu
 output         dipole unit                     : D
 output         efield unit                     : eV/A/e
 output        entropy unit                     : J/mol/K
  
 wavefunctions paging                           : none
 random number generator seed                   : randomised (150800099)
 data distribution                              : optimal for this architecture
 optimization strategy                          : maximize speed(+++)

 *********************** Exchange-Correlation Parameters ***********************
  
 using functional                               : Local Density Approximation
 relativistic treatment                         : Koelling-Harmon
 DFT+D: Semi-empirical dispersion correction    : off

 ************************* Pseudopotential Parameters **************************
  
 pseudopotential representation                 : reciprocal space
 <beta|phi> representation                      : reciprocal space
 spin-orbit coupling                            : off

 **************************** Basis Set Parameters *****************************
  
 plane wave basis set cut-off                   :   150.0000   eV
 size of standard grid                          :     2.0000
 size of   fine   gmax                          :    12.5491   1/A
 finite basis set correction                    : none

 **************************** Electronic Parameters ****************************
  
 number of  electrons                           :  8.000    
 net charge of system                           : +1.000    
 treating system as non-spin-polarized
 number of bands                                :          4

 ********************* Electronic Minimization Parameters **********************
  
 Method: Treating system as non-metallic,
         and number of  SD  steps               :          1
         and number of  CG  steps               :          4
  
 total energy / atom convergence tol.           : 0.1000E-07   eV
 eigen-energy convergence tolerance             : 0.7500E-08   eV
 max force / atom convergence tol.              : ignored
 convergence tolerance window                   :          3   cycles
 max. number of SCF cycles                      :        200
 periodic dipole correction                     : NONE

 ************************** Density Mixing Parameters **************************
  
 density-mixing scheme                          : Broyden
 max. length of mixing history                  :         20
 charge density mixing amplitude                : 0.8000    
 cut-off energy for mixing                      :  150.0       eV

 *********************** Population Analysis Parameters ************************
  
 Population analysis with cutoff                :  3.000       A
 Population analysis output                     : summary and pdos components

 ********************** Geometry Optimization Parameters ***********************
  
 optimization method                            : LBFGS
 max. no. of LBFGS updates                      : unbounded
 variable cell method                           : fixed basis quality
 max. number of steps                           :        300
 estimated bulk modulus                         :  500.0       GPa
 estimated <frequency>                          :  1668.       cm-1
 geom line minimiser                            : on
 with line minimiser tolerance                  :     0.4000
 total energy convergence tolerance             : 0.2000E-04   eV/atom
        max ionic |force| tolerance             : 0.5000E-01   eV/A
 max ionic |displacement| tolerance             : 0.1000E-02   A
   max |stress component| tolerance             : 0.1000       GPa
 convergence tolerance window                   :          2   steps
 backup results every                           :          5   steps
 write geom trajectory file                     : on

 *******************************************************************************
  
 
                           -------------------------------
                                      Unit Cell
                           -------------------------------
        Real Lattice(A)                      Reciprocal Lattice(1/A)
     2.6954640     2.6954640     0.0000000        1.165510893   1.165510893  -1.165510893
     2.6954640     0.0000000     2.6954640        1.165510893  -1.165510893   1.165510893
     0.0000000     2.6954640     2.6954640       -1.165510893   1.165510893   1.165510893
 
                       Lattice parameters(A)       Cell Angles
                    a =      3.811962          alpha =   60.000000
                    b =      3.811962          beta  =   60.000000
                    c =      3.811962          gamma =   60.000000
 
                       Current cell volume =            39.167928       A**3
                                   density =             1.459841   AMU/A**3
                                           =             2.424123     g/cm^3
 
                           -------------------------------
                                     Cell Contents
                           -------------------------------
                         Total number of ions in cell =    3
                      Total number of species in cell =    2
                        Max number of any one species =    2
 
            xxxxxxxxxxxxxxxxxxxxxxxxxxxxxxxxxxxxxxxxxxxxxxxxxxxxxxxxxxxx
            x  Element    Atom        Fractional coordinates of atoms  x
            x            Number           u          v          w      x
            x----------------------------------------------------------x
            x  Si           1         0.000000   0.000000   0.000000   x 
            x  Si           2         0.250000   0.250000   0.250000   x 
            x  H:mu         1         0.293388   0.092967   0.280099   x 
            xxxxxxxxxxxxxxxxxxxxxxxxxxxxxxxxxxxxxxxxxxxxxxxxxxxxxxxxxxxx
 
 
                         No user defined ionic velocities
 
                           -------------------------------
                                   Details of Species
                           -------------------------------
 
                               Mass of species in AMU
                                    Si   28.0855000
                                    H:mu    0.1134289
 
                          Electric Quadrupole Moment (Barn)
                                    Si    1.0000000 No Isotope Defined
                                    H:mu    0.0028600 Isotope  2
 
                          Files used for pseudopotentials:
                                    Si 3|1.8|5|6|7|30:31:32
                                    H:mu 1|0.6|13|15|17|10(qc=8)
 
                           -------------------------------
                              k-Points For BZ Sampling
                           -------------------------------
                       MP grid size for SCF calculation is  1  1  1
                            with an offset of   0.000  0.000  0.000
                       Number of kpoints used =             1
 
                           -------------------------------
                               Symmetry and Constraints
                           -------------------------------
 
                      Maximum deviation from symmetry =  0.00000         ANG
 
                      Number of symmetry operations   =           1
                      Number of ionic constraints     =           3
                      Point group of crystal =     1: C1, 1, 1
                      Space group of crystal =     1: P1, P 1
 
             Set iprint > 1 for details on symmetry rotations/translations
 
                         Centre of mass is constrained
             Set iprint > 1 for details of linear ionic constraints
 
                         Number of cell constraints= 6
                         Cell constraints are:  0 0 0 0 0 0
 
                         External pressure/stress (GPa)
                          0.00000   0.00000   0.00000
                                    0.00000   0.00000
                                              0.00000
  
+---------------- MEMORY AND SCRATCH DISK ESTIMATES PER PROCESS --------------+
|                                                     Memory          Disk    |
| Baseline code, static data and system overhead      464.0 MB         0.0 MB |
| BLAS internal memory storage                          0.0 MB         0.0 MB |
| Model and support data                               25.0 MB         0.0 MB |
| Electronic energy minimisation requirements           0.2 MB         0.0 MB |
| Force calculation requirements                        0.1 MB         0.0 MB |
|                                               ----------------------------- |
| Approx. total storage required per process          489.2 MB         0.0 MB |
|                                                                             |
| Requirements will fluctuate during execution and may exceed these estimates |
+-----------------------------------------------------------------------------+
Calculating total energy with cut-off of  150.000 eV.
------------------------------------------------------------------------ <-- SCF
SCF loop      Energy                           Energy gain       Timer   <-- SCF
                                               per atom          (sec)   <-- SCF
------------------------------------------------------------------------ <-- SCF
Initial  -3.88598699E+001                                          5.71  <-- SCF
      1  -2.62637501E+002                    7.45925439E+001       5.71  <-- SCF
      2  -2.89333810E+002                    8.89876963E+000       5.72  <-- SCF
      3  -2.89791634E+002                    1.52607877E-001       5.73  <-- SCF
      4  -2.85616086E+002                   -1.39184931E+000       5.73  <-- SCF
      5  -2.84810643E+002                   -2.68480963E-001       5.74  <-- SCF
      6  -2.84713860E+002                   -3.22610622E-002       5.75  <-- SCF
      7  -2.84711663E+002                   -7.32336033E-004       5.76  <-- SCF
      8  -2.84712118E+002                    1.51545567E-004       5.77  <-- SCF
      9  -2.84712209E+002                    3.05186460E-005       5.78  <-- SCF
     10  -2.84712217E+002                    2.62321168E-006       5.78  <-- SCF
     11  -2.84712216E+002                   -1.96293338E-007       5.79  <-- SCF
     12  -2.84712217E+002                    1.52791514E-007       5.80  <-- SCF
     13  -2.84712217E+002                   -3.33520891E-008       5.81  <-- SCF
     14  -2.84712217E+002                    1.62453043E-009       5.81  <-- SCF
     15  -2.84712217E+002                    1.53183593E-009       5.82  <-- SCF
------------------------------------------------------------------------ <-- SCF
 
Final energy =  -284.7122167645     eV
(energy not corrected for finite basis set)
 

Writing analysis data to ./castep-pymuonsuite-test-data/muon-airss-out-castep/castep/Si2_14/Si2_14.castep_bin

Writing model to ./castep-pymuonsuite-test-data/muon-airss-out-castep/castep/Si2_14/Si2_14.check
 
+---------------- MEMORY AND SCRATCH DISK ESTIMATES PER PROCESS --------------+
|                                                     Memory          Disk    |
| Model and support data                               36.0 MB         0.0 MB |
| Electronic energy minimisation requirements           0.2 MB         0.0 MB |
| Geometry minimisation requirements                    0.2 MB         0.0 MB |
|                                               ----------------------------- |
| Approx. total storage required per process           36.3 MB         0.0 MB |
|                                                                             |
| Requirements will fluctuate during execution and may exceed these estimates |
+-----------------------------------------------------------------------------+
 
 
 ************************************** Forces **************************************
 *                                                                                  *
 *                           Cartesian components (eV/A)                            *
 * -------------------------------------------------------------------------------- *
 *                         x                    y                    z              *
 *                                                                                  *
 * Si              1      2.11508             -4.21879              1.65097         *
 * Si              2    141.99169            -87.25839            160.35397         *
 * H:mu            1   -144.10676             91.47718           -162.00494         *
 *                                                                                  *
 ************************************************************************************
 LBFGS: finished iteration     0 with enthalpy= -2.84712217E+002 eV
  
 +-----------+-----------------+-----------------+------------+-----+ <-- LBFGS
 | Parameter |      value      |    tolerance    |    units   | OK? | <-- LBFGS
 +-----------+-----------------+-----------------+------------+-----+ <-- LBFGS
 |  dE/ion   |   0.000000E+000 |   2.000000E-005 |         eV | No  | <-- LBFGS
 |  |F|max   |   2.353305E+002 |   5.000000E-002 |       eV/A | No  | <-- LBFGS
 |  |dR|max  |   0.000000E+000 |   1.000000E-003 |          A | No  | <-- LBFGS
 +-----------+-----------------+-----------------+------------+-----+ <-- LBFGS
  

================================================================================
 Starting LBFGS iteration          1 ...
================================================================================
  
 +------------+-------------+-------------+-----------------+ <-- min LBFGS
 |    Step    |   lambda    |   F.delta'  |    enthalpy     | <-- min LBFGS
 +------------+-------------+-------------+-----------------+ <-- min LBFGS
 |  previous  |    0.000000 |   36.822668 |     -284.712217 | <-- min LBFGS
 +------------+-------------+-------------+-----------------+ <-- min LBFGS
  

--------------------------------------------------------------------------------
 LBFGS: starting iteration         1 with trial guess (lambda=  0.215774)
--------------------------------------------------------------------------------
 
                           -------------------------------
                                     Cell Contents
                           -------------------------------
 
            xxxxxxxxxxxxxxxxxxxxxxxxxxxxxxxxxxxxxxxxxxxxxxxxxxxxxxxxxxxxxxxxx
            x  Element         Atom        Fractional coordinates of atoms  x
            x                 Number           u          v          w      x
            x---------------------------------------------------------------x
            x  Si                1        -0.000783   0.001665  -0.000977   x
            x  Si                2         0.227972   0.331256   0.235631   x
            x  H:mu              1         0.316199   0.010046   0.295445   x
            xxxxxxxxxxxxxxxxxxxxxxxxxxxxxxxxxxxxxxxxxxxxxxxxxxxxxxxxxxxxxxxxx
 
 
------------------------------------------------------------------------ <-- SCF
SCF loop      Energy                           Energy gain       Timer   <-- SCF
                                               per atom          (sec)   <-- SCF
------------------------------------------------------------------------ <-- SCF
Initial  -3.26688551E+002                                          5.91  <-- SCF
      1  -3.36278419E+002                    3.19662290E+000       5.92  <-- SCF
      2  -3.36336476E+002                    1.93523148E-002       5.92  <-- SCF
      3  -3.36319904E+002                   -5.52395702E-003       5.93  <-- SCF
      4  -3.35618398E+002                   -2.33835337E-001       5.94  <-- SCF
      5  -3.35538089E+002                   -2.67697728E-002       5.95  <-- SCF
      6  -3.35606640E+002                    2.28502113E-002       5.96  <-- SCF
      7  -3.35491955E+002                   -3.82283709E-002       5.97  <-- SCF
      8  -3.35478863E+002                   -4.36378201E-003       5.98  <-- SCF
      9  -3.35408985E+002                   -2.32927671E-002       5.99  <-- SCF
     10  -3.35495812E+002                    2.89423491E-002       6.00  <-- SCF
     11  -3.35481602E+002                   -4.73662204E-003       6.01  <-- SCF
     12  -3.35390192E+002                   -3.04700594E-002       6.02  <-- SCF
     13  -3.35866910E+002                    1.58905954E-001       6.03  <-- SCF
     14  -3.35509568E+002                   -1.19113862E-001       6.04  <-- SCF
     15  -3.35415115E+002                   -3.14843779E-002       6.05  <-- SCF
     16  -3.35468085E+002                    1.76565822E-002       6.06  <-- SCF
     17  -3.35440813E+002                   -9.09056644E-003       6.07  <-- SCF
     18  -3.35384698E+002                   -1.87048917E-002       6.08  <-- SCF
     19  -3.35395447E+002                    3.58285700E-003       6.09  <-- SCF
     20  -3.35429513E+002                    1.13554690E-002       6.10  <-- SCF
     21  -3.35958172E+002                    1.76219595E-001       6.11  <-- SCF
     22  -3.35619319E+002                   -1.12950947E-001       6.12  <-- SCF
     23  -3.35868150E+002                    8.29436950E-002       6.14  <-- SCF
     24  -3.35611962E+002                   -8.53962649E-002       6.15  <-- SCF
     25  -3.35374163E+002                   -7.92662021E-002       6.16  <-- SCF
     26  -3.35779880E+002                    1.35239080E-001       6.17  <-- SCF
     27  -3.35634009E+002                   -4.86237680E-002       6.18  <-- SCF
     28  -3.36084764E+002                    1.50251696E-001       6.20  <-- SCF
     29  -3.35733844E+002                   -1.16973473E-001       6.21  <-- SCF
     30  -3.35599822E+002                   -4.46739659E-002       6.22  <-- SCF
     31  -3.35431735E+002                   -5.60289363E-002       6.23  <-- SCF
     32  -3.35459550E+002                    9.27170480E-003       6.24  <-- SCF
     33  -3.35675812E+002                    7.20872640E-002       6.26  <-- SCF
     34  -3.35669663E+002                   -2.04960000E-003       6.27  <-- SCF
     35  -3.35556469E+002                   -3.77313714E-002       6.28  <-- SCF
     36  -3.35578753E+002                    7.42799785E-003       6.29  <-- SCF
     37  -3.35560914E+002                   -5.94614171E-003       6.30  <-- SCF
     38  -3.35555693E+002                   -1.74063940E-003       6.32  <-- SCF
     39  -3.35504217E+002                   -1.71583757E-002       6.33  <-- SCF
     40  -3.35412291E+002                   -3.06420935E-002       6.34  <-- SCF
     41  -3.35753079E+002                    1.13595920E-001       6.35  <-- SCF
     42  -3.35647583E+002                   -3.51653717E-002       6.36  <-- SCF
     43  -3.35498275E+002                   -4.97691904E-002       6.37  <-- SCF
     44  -3.35340523E+002                   -5.25842122E-002       6.39  <-- SCF
     45  -3.36119295E+002                    2.59590657E-001       6.40  <-- SCF
     46  -3.35725715E+002                   -1.31193214E-001       6.41  <-- SCF
     47  -3.35276685E+002                   -1.49676689E-001       6.42  <-- SCF
     48  -3.36969013E+002                    5.64109462E-001       6.43  <-- SCF
     49  -3.36014586E+002                   -3.18142440E-001       6.44  <-- SCF
     50  -3.38043531E+002                    6.76314945E-001       6.45  <-- SCF
     51  -3.36033550E+002                   -6.69993559E-001       6.46  <-- SCF
     52  -3.36805945E+002                    2.57465004E-001       6.47  <-- SCF
     53  -3.35235910E+002                   -5.23345005E-001       6.48  <-- SCF
     54  -3.38364556E+002                    1.04288205E+000       6.49  <-- SCF
     55  -3.36305956E+002                   -6.86200052E-001       6.50  <-- SCF
     56  -3.36692610E+002                    1.28884743E-001       6.52  <-- SCF
     57  -3.35619887E+002                   -3.57574460E-001       6.53  <-- SCF
     58  -3.35537737E+002                   -2.73833220E-002       6.54  <-- SCF
     59  -3.35312729E+002                   -7.50027520E-002       6.55  <-- SCF
     60  -3.36149072E+002                    2.78781269E-001       6.56  <-- SCF
     61  -3.35871676E+002                   -9.24654031E-002       6.58  <-- SCF
     62  -3.36650696E+002                    2.59673292E-001       6.59  <-- SCF
     63  -3.35761203E+002                   -2.96497654E-001       6.60  <-- SCF
     64  -3.35966248E+002                    6.83483874E-002       6.61  <-- SCF
     65  -3.35553531E+002                   -1.37572545E-001       6.62  <-- SCF
     66  -3.35771232E+002                    7.25670389E-002       6.63  <-- SCF
     67  -3.35636497E+002                   -4.49115325E-002       6.65  <-- SCF
     68  -3.35786007E+002                    4.98365986E-002       6.66  <-- SCF
     69  -3.35637093E+002                   -4.96379429E-002       6.67  <-- SCF
     70  -3.35674862E+002                    1.25895885E-002       6.68  <-- SCF
     71  -3.35647148E+002                   -9.23814316E-003       6.69  <-- SCF
     72  -3.36057030E+002                    1.36627516E-001       6.70  <-- SCF
     73  -3.35460066E+002                   -1.98988059E-001       6.71  <-- SCF
     74  -3.35584023E+002                    4.13190760E-002       6.73  <-- SCF
     75  -3.36236243E+002                    2.17406690E-001       6.74  <-- SCF
     76  -3.35498177E+002                   -2.46022069E-001       6.75  <-- SCF
     77  -3.35411200E+002                   -2.89922787E-002       6.76  <-- SCF
     78  -3.35383025E+002                   -9.39169680E-003       6.78  <-- SCF
     79  -3.35338510E+002                   -1.48382147E-002       6.79  <-- SCF
     80  -3.35287740E+002                   -1.69234919E-002       6.80  <-- SCF
     81  -3.35784713E+002                    1.65657831E-001       6.81  <-- SCF
     82  -3.35627768E+002                   -5.23153005E-002       6.82  <-- SCF
     83  -3.35731723E+002                    3.46516913E-002       6.83  <-- SCF
     84  -3.35617217E+002                   -3.81683795E-002       6.84  <-- SCF
     85  -3.36193103E+002                    1.91961972E-001       6.86  <-- SCF
     86  -3.35612094E+002                   -1.93669945E-001       6.86  <-- SCF
     87  -3.36217796E+002                    2.01900725E-001       6.88  <-- SCF
     88  -3.35233803E+002                   -3.27997545E-001       6.89  <-- SCF
     89  -3.33864853E+002                   -4.56316602E-001       6.89  <-- SCF
     90  -3.38050631E+002                    1.39525926E+000       6.91  <-- SCF
     91  -3.37385708E+002                   -2.21641010E-001       6.92  <-- SCF
     92  -3.36935936E+002                   -1.49923897E-001       6.93  <-- SCF
     93  -3.34772902E+002                   -7.21011348E-001       6.94  <-- SCF
     94  -3.37610275E+002                    9.45790821E-001       6.95  <-- SCF
     95  -3.36389121E+002                   -4.07051237E-001       6.96  <-- SCF
     96  -3.36777855E+002                    1.29577972E-001       6.97  <-- SCF
     97  -3.35539893E+002                   -4.12653981E-001       6.98  <-- SCF
     98  -3.35449410E+002                   -3.01610666E-002       6.99  <-- SCF
     99  -3.35524590E+002                    2.50601961E-002       7.01  <-- SCF
    100  -3.35599193E+002                    2.48675396E-002       7.02  <-- SCF
    101  -3.35685224E+002                    2.86768572E-002       7.03  <-- SCF
    102  -3.35800393E+002                    3.83896494E-002       7.04  <-- SCF
    103  -3.35838584E+002                    1.27304442E-002       7.05  <-- SCF
    104  -3.36052180E+002                    7.11986186E-002       7.06  <-- SCF
    105  -3.36004475E+002                   -1.59016185E-002       7.07  <-- SCF
    106  -3.35223577E+002                   -2.60299331E-001       7.08  <-- SCF
    107  -3.36088303E+002                    2.88242050E-001       7.09  <-- SCF
    108  -3.35665045E+002                   -1.41085858E-001       7.10  <-- SCF
    109  -3.35974042E+002                    1.02998889E-001       7.12  <-- SCF
    110  -3.35725160E+002                   -8.29608608E-002       7.13  <-- SCF
    111  -3.35721297E+002                   -1.28765494E-003       7.14  <-- SCF
    112  -3.35709856E+002                   -3.81354640E-003       7.15  <-- SCF
    113  -3.36130715E+002                    1.40286417E-001       7.16  <-- SCF
    114  -3.35570524E+002                   -1.86730329E-001       7.18  <-- SCF
    115  -3.33942602E+002                   -5.42640785E-001       7.18  <-- SCF
    116  -3.37388353E+002                    1.14858382E+000       7.20  <-- SCF
    117  -3.36696714E+002                   -2.30546561E-001       7.21  <-- SCF
    118  -3.37073455E+002                    1.25580386E-001       7.22  <-- SCF
    119  -3.35497545E+002                   -5.25303221E-001       7.23  <-- SCF
    120  -3.35539403E+002                    1.39527638E-002       7.24  <-- SCF
    121  -3.35628340E+002                    2.96456481E-002       7.25  <-- SCF
    122  -3.35427076E+002                   -6.70881972E-002       7.27  <-- SCF
    123  -3.35495677E+002                    2.28669964E-002       7.28  <-- SCF
    124  -3.35488112E+002                   -2.52152084E-003       7.29  <-- SCF
    125  -3.35506629E+002                    6.17229516E-003       7.30  <-- SCF
    126  -3.35658974E+002                    5.07816439E-002       7.31  <-- SCF
    127  -3.36043619E+002                    1.28214920E-001       7.32  <-- SCF
    128  -3.35753029E+002                   -9.68632966E-002       7.33  <-- SCF
    129  -3.35541694E+002                   -7.04448702E-002       7.35  <-- SCF
    130  -3.35546832E+002                    1.71273344E-003       7.36  <-- SCF
    131  -3.35992087E+002                    1.48418125E-001       7.37  <-- SCF
    132  -3.35513791E+002                   -1.59432071E-001       7.38  <-- SCF
    133  -3.35560877E+002                    1.56954675E-002       7.39  <-- SCF
    134  -3.35750106E+002                    6.30762872E-002       7.41  <-- SCF
    135  -3.35714210E+002                   -1.19653138E-002       7.42  <-- SCF
    136  -3.37532269E+002                    6.06019778E-001       7.43  <-- SCF
    137  -3.38831272E+002                    4.33000789E-001       7.44  <-- SCF
    138  -3.35855358E+002                   -9.91971205E-001       7.45  <-- SCF
    139  -3.37294987E+002                    4.79876202E-001       7.46  <-- SCF
    140  -3.35514976E+002                   -5.93336934E-001       7.47  <-- SCF
    141  -3.33932195E+002                   -5.27593661E-001       7.48  <-- SCF
    142  -3.38017248E+002                    1.36168438E+000       7.49  <-- SCF
    143  -3.38824808E+002                    2.69186730E-001       7.50  <-- SCF
    144  -3.35601367E+002                   -1.07448025E+000       7.51  <-- SCF
    145  -3.37440585E+002                    6.13072494E-001       7.52  <-- SCF
    146  -3.36561938E+002                   -2.92882389E-001       7.53  <-- SCF
    147  -3.34870283E+002                   -5.63884842E-001       7.54  <-- SCF
    148  -3.37358580E+002                    8.29432243E-001       7.56  <-- SCF
    149  -3.36126376E+002                   -4.10734689E-001       7.57  <-- SCF
    150  -3.37094722E+002                    3.22782128E-001       7.58  <-- SCF
    151  -3.35561669E+002                   -5.11017674E-001       7.59  <-- SCF
    152  -3.36890936E+002                    4.43089000E-001       7.60  <-- SCF
    153  -3.35879162E+002                   -3.37258203E-001       7.61  <-- SCF
    154  -3.36104314E+002                    7.50506323E-002       7.62  <-- SCF
    155  -3.35511024E+002                   -1.97763267E-001       7.64  <-- SCF
    156  -3.35450836E+002                   -2.00625758E-002       7.65  <-- SCF
    157  -3.35505220E+002                    1.81279087E-002       7.66  <-- SCF
    158  -3.35728472E+002                    7.44175524E-002       7.67  <-- SCF
    159  -3.35735681E+002                    2.40270148E-003       7.68  <-- SCF
    160  -3.36627515E+002                    2.97278168E-001       7.69  <-- SCF
    161  -3.36737325E+002                    3.66033192E-002       7.71  <-- SCF
    162  -3.36316438E+002                   -1.40295824E-001       7.72  <-- SCF
    163  -3.37053027E+002                    2.45529923E-001       7.73  <-- SCF
    164  -3.37291542E+002                    7.95048623E-002       7.74  <-- SCF
    165  -3.38277753E+002                    3.28736975E-001       7.75  <-- SCF
    166  -3.37232424E+002                   -3.48442958E-001       7.76  <-- SCF
    167  -3.34755662E+002                   -8.25587309E-001       7.77  <-- SCF
    168  -3.39081789E+002                    1.44204248E+000       7.78  <-- SCF
    169  -3.36796531E+002                   -7.61752649E-001       7.79  <-- SCF
    170  -3.36309257E+002                   -1.62424734E-001       7.80  <-- SCF
    171  -3.35170141E+002                   -3.79705513E-001       7.81  <-- SCF
    172  -3.35470115E+002                    9.99915109E-002       7.82  <-- SCF
    173  -3.35746770E+002                    9.22183495E-002       7.84  <-- SCF
    174  -3.35699852E+002                   -1.56392811E-002       7.85  <-- SCF
    175  -3.35780078E+002                    2.67419866E-002       7.86  <-- SCF
    176  -3.35679717E+002                   -3.34537334E-002       7.87  <-- SCF
    177  -3.35692140E+002                    4.14094485E-003       7.88  <-- SCF
    178  -3.35510079E+002                   -6.06870077E-002       7.90  <-- SCF
    179  -3.35475016E+002                   -1.16875826E-002       7.91  <-- SCF
    180  -3.37081231E+002                    5.35405005E-001       7.92  <-- SCF
    181  -3.35558330E+002                   -5.07633925E-001       7.93  <-- SCF
    182  -3.36069194E+002                    1.70288215E-001       7.94  <-- SCF
    183  -3.36082744E+002                    4.51656000E-003       7.95  <-- SCF
    184  -3.35874010E+002                   -6.95778395E-002       7.97  <-- SCF
    185  -3.35955477E+002                    2.71553989E-002       7.98  <-- SCF
    186  -3.36252378E+002                    9.89671335E-002       7.99  <-- SCF
    187  -3.36003746E+002                   -8.28774780E-002       8.00  <-- SCF
    188  -3.36682886E+002                    2.26380290E-001       8.01  <-- SCF
    189  -3.36662179E+002                   -6.90230352E-003       8.02  <-- SCF
    190  -3.35765431E+002                   -2.98916095E-001       8.03  <-- SCF
    191  -3.35521003E+002                   -8.14760669E-002       8.04  <-- SCF
    192  -3.35634723E+002                    3.79066941E-002       8.06  <-- SCF
    193  -3.35560252E+002                   -2.48236975E-002       8.07  <-- SCF
    194  -3.35913690E+002                    1.17812807E-001       8.09  <-- SCF
    195  -3.35335003E+002                   -1.92895941E-001       8.10  <-- SCF
    196  -3.36888990E+002                    5.17995936E-001       8.11  <-- SCF
    197  -3.36312184E+002                   -1.92268705E-001       8.12  <-- SCF
    198  -3.37281324E+002                    3.23046426E-001       8.13  <-- SCF
    199  -3.35048973E+002                   -7.44116716E-001       8.14  <-- SCF
    200  -3.37810437E+002                    9.20487813E-001       8.16  <-- SCF
------------------------------------------------------------------------ <-- SCF
 *Warning* max. SCF cycles performed but system has not reached the groundstate.
  
Current total energy =  -337.8104368443     eV
(energy not corrected for finite basis set)
 
  ****************************************************************************
  WARNING: electronic minimisation did not converge when finding ground state.
  ****************************************************************************

Writing analysis data to ./castep-pymuonsuite-test-data/muon-airss-out-castep/castep/Si2_14/Si2_14.castep_bin

Writing model to ./castep-pymuonsuite-test-data/muon-airss-out-castep/castep/Si2_14/Si2_14.check
