 +-------------------------------------------------+
 |                                                 |
 |      CCC   AA    SSS  TTTTT  EEEEE  PPPP        |
 |     C     A  A  S       T    E      P   P       |
 |     C     AAAA   SS     T    EEE    PPPP        |
 |     C     A  A     S    T    E      P           |
 |      CCC  A  A  SSS     T    EEEEE  P           |
 |                                                 |
 +-------------------------------------------------+
 |                                                 |
 | Welcome to Academic Release CASTEP version 19.11|          
 | Ab Initio Total Energy Program                  |
 |                                                 |
 | Authors:                                        |
 | M. Segall, M. Probert, C. Pickard, P. Hasnip,   |
 | S. Clark, K. Refson, J. R. Yates, M. Payne      |
 |                                                 |
 | Contributors:                                   |
 | P. Lindan, P. Haynes, J. White, V. Milman,      |
 | N. Govind, M. Gibson, P. Tulip, V. Cocula,      |
 | B. Montanari, D. Quigley, M. Glover,            |
 | L. Bernasconi, A. Perlov, M. Plummer,           |
 | E. McNellis, J. Meyer, J. Gale, D. Jochym       |
 | J. Aarons, B. Walker, R. Gillen, D. Jones       |
 | T. Green, I. J. Bush, C. J. Armstrong,          |
 | E. J. Higgins, E. L. Brown, M. S. McFly,        |
 | J. Wilkins, B-C. Shih, P. J. P. Byrne           |
 |                                                 |
 | Copyright (c) 2000 - 2018                       |
 |                                                 |
 |     Distributed under the terms of an           |
 |     Agreement between the United Kingdom        |
 |     Car-Parrinello (UKCP) Consortium,           |
 |     Daresbury Laboratory and Accelrys, Inc.     |
 |                                                 |
 | Please cite                                     |
 |                                                 |
 |     "First principles methods using CASTEP"     |
 |                                                 |
 |         Zeitschrift fuer Kristallographie       |
 |           220(5-6) pp. 567-570 (2005)           |
 |                                                 |
 | S. J. Clark, M. D. Segall, C. J. Pickard,       |
 | P. J. Hasnip, M. J. Probert, K. Refson,         |
 | M. C. Payne                                     |
 |                                                 |
 |       in all publications arising from          |
 |              your use of CASTEP                 |
 |                                                 |
 +-------------------------------------------------+
 |                                                 |
 |              http://www.castep.org              |
 |                                                 |
 +-------------------------------------------------+
 
 
 
 Compiled for linux_x86_64_ifort18 on Fri, 05 Jul 2019 15:43:56 +0100
 from code version 
 0a9e5daac2f4+ Castep191_branch Wed, 03 Jul 2019 08:43:28 +0000
 Compiler: Intel Fortran 18.0.3.222; Optimisation: fast
 MATHLIBS: Intel MKL(2018.0.3) (LAPACK version 3.7.0)
 FFT Lib : default
 Fundamental constants values: CODATA 2014
 
 Run started: Tue, 17 Nov 2020 15:09:16 +0000
 
 Atomic calculation performed for Si: 1s2 2s2 2p6 3s2 3p2
 
 Converged in 55 iterations to an ae energy of -7859.183 eV
 
   ============================================================                
   | Pseudopotential Report - Date of generation 17-11-2020   |                
   ------------------------------------------------------------                
   | Element: Si Ionic charge:  4.00 Level of theory: LDA     |                
   | Atomic Solver: Koelling-Harmon                           |                
   |                                                          |                
   |               Reference Electronic Structure             |                
   |         Orbital         Occupation         Energy        |                
   |            3s              2.000           -0.400        |                
   |            3p              2.000           -0.153        |                
   |                                                          |                
   |                 Pseudopotential Definition               |                
   |        Beta     l      e      Rc     scheme   norm       |                
   |          1      0   -0.400   1.797     qc      0         |                
   |          2      0    0.250   1.797     qc      0         |                
   |          3      1   -0.153   1.797     qc      0         |                
   |          4      1    0.250   1.797     qc      0         |                
   |          5      2    0.000   1.797     qc      0         |                
   |          6      2    0.250   1.797     qc      0         |                
   |         loc     3    0.000   1.797     pn      0         |                
   |                                                          |                
   | Augmentation charge Rinner = 1.255                       |                
   | Partial core correction Rc = 1.255                       |                
   ------------------------------------------------------------                
   | "3|1.8|5|6|7|30:31:32"                                   |                
   ------------------------------------------------------------                
   |      Author: Chris J. Pickard, Cambridge University      |                
   ============================================================                
 
 Atomic calculation performed for H:mu: 1s1
 
 Converged in 41 iterations to an ae energy of -12.134 eV
 
   ============================================================                
   | Pseudopotential Report - Date of generation 17-11-2020   |                
   ------------------------------------------------------------                
   | Element: H Ionic charge:  1.00 Level of theory: LDA      |                
   | Atomic Solver: Koelling-Harmon                           |                
   |                                                          |                
   |               Reference Electronic Structure             |                
   |         Orbital         Occupation         Energy        |                
   |            1s              1.000           -0.234        |                
   |                                                          |                
   |                 Pseudopotential Definition               |                
   |        Beta     l      e      Rc     scheme   norm       |                
   |          1      0   -0.234   0.599     qc      0         |                
   |          2      0    0.250   0.599     qc      0         |                
   |         loc     1    0.000   0.599     pn      0         |                
   |                                                          |                
   | Augmentation charge Rinner = 0.421                       |                
   | No partial core correction                               |                
   ------------------------------------------------------------                
   | "1|0.6|13|15|17|10(qc=8)"                                |                
   ------------------------------------------------------------                
   |      Author: Chris J. Pickard, Cambridge University      |                
   ============================================================                
 
 Pseudo atomic calculation performed for Si 3s2 3p2
 
 Converged in 21 iterations to a total energy of -162.9266 eV
 
 Pseudo atomic calculation performed for H:mu 1s1
 
 Converged in 18 iterations to a total energy of -11.6786 eV
 Calculation parallelised over 8 processes.
 Data is distributed by G-vector(8-way)

 ************************************ Title ************************************
 

 ***************************** General Parameters ******************************
  
 output verbosity                               : normal  (1)
 write checkpoint data to                       : ./castep-pymuonsuite-test-data/muon-airss-out-castep/castep/Si2_22/Si2_22.check
 type of calculation                            : geometry optimization
 stress calculation                             : off
 density difference calculation                 : off
 electron localisation func (ELF) calculation   : off
 Hirshfeld analysis                             : off
 unlimited duration calculation
 timing information                             : on
 memory usage estimate                          : on
 write extra output files                       : on
 write final potential to formatted file        : off
 write final density to formatted file          : on
 write structure in CELL formatted file         : on
 write BibTeX reference list                    : on
 write OTFG pseudopotential files               : on
 write electrostatic potential file             : on
 write bands file                               : on
 checkpoint writing                             : both castep_bin and check files
  
 output         length unit                     : A
 output           mass unit                     : amu
 output           time unit                     : ps
 output         charge unit                     : e
 output           spin unit                     : hbar/2
 output         energy unit                     : eV
 output          force unit                     : eV/A
 output       velocity unit                     : A/ps
 output       pressure unit                     : GPa
 output     inv_length unit                     : 1/A
 output      frequency unit                     : cm-1
 output force constant unit                     : eV/A**2
 output         volume unit                     : A**3
 output   IR intensity unit                     : (D/A)**2/amu
 output         dipole unit                     : D
 output         efield unit                     : eV/A/e
 output        entropy unit                     : J/mol/K
  
 wavefunctions paging                           : none
 random number generator seed                   : randomised (150916711)
 data distribution                              : optimal for this architecture
 optimization strategy                          : maximize speed(+++)

 *********************** Exchange-Correlation Parameters ***********************
  
 using functional                               : Local Density Approximation
 relativistic treatment                         : Koelling-Harmon
 DFT+D: Semi-empirical dispersion correction    : off

 ************************* Pseudopotential Parameters **************************
  
 pseudopotential representation                 : reciprocal space
 <beta|phi> representation                      : reciprocal space
 spin-orbit coupling                            : off

 **************************** Basis Set Parameters *****************************
  
 plane wave basis set cut-off                   :   150.0000   eV
 size of standard grid                          :     2.0000
 size of   fine   gmax                          :    12.5491   1/A
 finite basis set correction                    : none

 **************************** Electronic Parameters ****************************
  
 number of  electrons                           :  8.000    
 net charge of system                           : +1.000    
 treating system as non-spin-polarized
 number of bands                                :          4

 ********************* Electronic Minimization Parameters **********************
  
 Method: Treating system as non-metallic,
         and number of  SD  steps               :          1
         and number of  CG  steps               :          4
  
 total energy / atom convergence tol.           : 0.1000E-07   eV
 eigen-energy convergence tolerance             : 0.7500E-08   eV
 max force / atom convergence tol.              : ignored
 convergence tolerance window                   :          3   cycles
 max. number of SCF cycles                      :        200
 periodic dipole correction                     : NONE

 ************************** Density Mixing Parameters **************************
  
 density-mixing scheme                          : Broyden
 max. length of mixing history                  :         20
 charge density mixing amplitude                : 0.8000    
 cut-off energy for mixing                      :  150.0       eV

 *********************** Population Analysis Parameters ************************
  
 Population analysis with cutoff                :  3.000       A
 Population analysis output                     : summary and pdos components

 ********************** Geometry Optimization Parameters ***********************
  
 optimization method                            : LBFGS
 max. no. of LBFGS updates                      : unbounded
 variable cell method                           : fixed basis quality
 max. number of steps                           :        300
 estimated bulk modulus                         :  500.0       GPa
 estimated <frequency>                          :  1668.       cm-1
 geom line minimiser                            : on
 with line minimiser tolerance                  :     0.4000
 total energy convergence tolerance             : 0.2000E-04   eV/atom
        max ionic |force| tolerance             : 0.5000E-01   eV/A
 max ionic |displacement| tolerance             : 0.1000E-02   A
   max |stress component| tolerance             : 0.1000       GPa
 convergence tolerance window                   :          2   steps
 backup results every                           :          5   steps
 write geom trajectory file                     : on

 *******************************************************************************
  
 
                           -------------------------------
                                      Unit Cell
                           -------------------------------
        Real Lattice(A)                      Reciprocal Lattice(1/A)
     2.6954640     2.6954640     0.0000000        1.165510893   1.165510893  -1.165510893
     2.6954640     0.0000000     2.6954640        1.165510893  -1.165510893   1.165510893
     0.0000000     2.6954640     2.6954640       -1.165510893   1.165510893   1.165510893
 
                       Lattice parameters(A)       Cell Angles
                    a =      3.811962          alpha =   60.000000
                    b =      3.811962          beta  =   60.000000
                    c =      3.811962          gamma =   60.000000
 
                       Current cell volume =            39.167928       A**3
                                   density =             1.459841   AMU/A**3
                                           =             2.424123     g/cm^3
 
                           -------------------------------
                                     Cell Contents
                           -------------------------------
                         Total number of ions in cell =    3
                      Total number of species in cell =    2
                        Max number of any one species =    2
 
            xxxxxxxxxxxxxxxxxxxxxxxxxxxxxxxxxxxxxxxxxxxxxxxxxxxxxxxxxxxx
            x  Element    Atom        Fractional coordinates of atoms  x
            x            Number           u          v          w      x
            x----------------------------------------------------------x
            x  Si           1         0.000000   0.000000   0.000000   x 
            x  Si           2         0.250000   0.250000   0.250000   x 
            x  H:mu         1         0.800991   0.325442   0.994037   x 
            xxxxxxxxxxxxxxxxxxxxxxxxxxxxxxxxxxxxxxxxxxxxxxxxxxxxxxxxxxxx
 
 
                         No user defined ionic velocities
 
                           -------------------------------
                                   Details of Species
                           -------------------------------
 
                               Mass of species in AMU
                                    Si   28.0855000
                                    H:mu    0.1134289
 
                          Electric Quadrupole Moment (Barn)
                                    Si    1.0000000 No Isotope Defined
                                    H:mu    0.0028600 Isotope  2
 
                          Files used for pseudopotentials:
                                    Si 3|1.8|5|6|7|30:31:32
                                    H:mu 1|0.6|13|15|17|10(qc=8)
 
                           -------------------------------
                              k-Points For BZ Sampling
                           -------------------------------
                       MP grid size for SCF calculation is  1  1  1
                            with an offset of   0.000  0.000  0.000
                       Number of kpoints used =             1
 
                           -------------------------------
                               Symmetry and Constraints
                           -------------------------------
 
                      Maximum deviation from symmetry =  0.00000         ANG
 
                      Number of symmetry operations   =           1
                      Number of ionic constraints     =           3
                      Point group of crystal =     1: C1, 1, 1
                      Space group of crystal =     1: P1, P 1
 
             Set iprint > 1 for details on symmetry rotations/translations
 
                         Centre of mass is constrained
             Set iprint > 1 for details of linear ionic constraints
 
                         Number of cell constraints= 6
                         Cell constraints are:  0 0 0 0 0 0
 
                         External pressure/stress (GPa)
                          0.00000   0.00000   0.00000
                                    0.00000   0.00000
                                              0.00000
  
+---------------- MEMORY AND SCRATCH DISK ESTIMATES PER PROCESS --------------+
|                                                     Memory          Disk    |
| Baseline code, static data and system overhead      463.0 MB         0.0 MB |
| BLAS internal memory storage                          0.0 MB         0.0 MB |
| Model and support data                               25.0 MB         0.0 MB |
| Electronic energy minimisation requirements           0.2 MB         0.0 MB |
| Force calculation requirements                        0.1 MB         0.0 MB |
|                                               ----------------------------- |
| Approx. total storage required per process          488.2 MB         0.0 MB |
|                                                                             |
| Requirements will fluctuate during execution and may exceed these estimates |
+-----------------------------------------------------------------------------+
Calculating total energy with cut-off of  150.000 eV.
------------------------------------------------------------------------ <-- SCF
SCF loop      Energy                           Energy gain       Timer   <-- SCF
                                               per atom          (sec)   <-- SCF
------------------------------------------------------------------------ <-- SCF
Initial  -5.58443109E+001                                          5.71  <-- SCF
      1  -3.17491209E+002                    8.72156327E+001       5.71  <-- SCF
      2  -3.40339470E+002                    7.61608711E+000       5.72  <-- SCF
      3  -3.41509566E+002                    3.90031950E-001       5.73  <-- SCF
      4  -3.38888885E+002                   -8.73560486E-001       5.74  <-- SCF
      5  -3.37956435E+002                   -3.10816646E-001       5.74  <-- SCF
      6  -3.37830796E+002                   -4.18795769E-002       5.75  <-- SCF
      7  -3.37836401E+002                    1.86816972E-003       5.76  <-- SCF
      8  -3.37814819E+002                   -7.19397910E-003       5.77  <-- SCF
      9  -3.37820709E+002                    1.96332375E-003       5.78  <-- SCF
     10  -3.37812405E+002                   -2.76802904E-003       5.79  <-- SCF
     11  -3.37812381E+002                   -7.86370509E-006       5.80  <-- SCF
     12  -3.37812386E+002                    1.79810670E-006       5.81  <-- SCF
     13  -3.37812383E+002                   -1.08734922E-006       5.82  <-- SCF
     14  -3.37812383E+002                    3.66347121E-010       5.83  <-- SCF
     15  -3.37812383E+002                   -1.11274011E-008       5.84  <-- SCF
     16  -3.37812383E+002                    8.66378636E-009       5.85  <-- SCF
     17  -3.37812383E+002                    1.74419706E-009       5.85  <-- SCF
     18  -3.37812383E+002                    9.09704818E-010       5.86  <-- SCF
------------------------------------------------------------------------ <-- SCF
 
Final energy =  -337.8123831908     eV
(energy not corrected for finite basis set)
 

Writing analysis data to ./castep-pymuonsuite-test-data/muon-airss-out-castep/castep/Si2_22/Si2_22.castep_bin

Writing model to ./castep-pymuonsuite-test-data/muon-airss-out-castep/castep/Si2_22/Si2_22.check
 
+---------------- MEMORY AND SCRATCH DISK ESTIMATES PER PROCESS --------------+
|                                                     Memory          Disk    |
| Model and support data                               36.0 MB         0.0 MB |
| Electronic energy minimisation requirements           0.2 MB         0.0 MB |
| Geometry minimisation requirements                    0.2 MB         0.0 MB |
|                                               ----------------------------- |
| Approx. total storage required per process           36.3 MB         0.0 MB |
|                                                                             |
| Requirements will fluctuate during execution and may exceed these estimates |
+-----------------------------------------------------------------------------+
 
 
 ************************************** Forces **************************************
 *                                                                                  *
 *                           Cartesian components (eV/A)                            *
 * -------------------------------------------------------------------------------- *
 *                         x                    y                    z              *
 *                                                                                  *
 * Si              1     -2.80203              8.56246            -15.87720         *
 * Si              2     -1.89785             -0.59055              0.12405         *
 * H:mu            1      4.69989             -7.97191             15.75316         *
 *                                                                                  *
 ************************************************************************************
 LBFGS: finished iteration     0 with enthalpy= -3.37812383E+002 eV
  
 +-----------+-----------------+-----------------+------------+-----+ <-- LBFGS
 | Parameter |      value      |    tolerance    |    units   | OK? | <-- LBFGS
 +-----------+-----------------+-----------------+------------+-----+ <-- LBFGS
 |  dE/ion   |   0.000000E+000 |   2.000000E-005 |         eV | No  | <-- LBFGS
 |  |F|max   |   1.827026E+001 |   5.000000E-002 |       eV/A | No  | <-- LBFGS
 |  |dR|max  |   0.000000E+000 |   1.000000E-003 |          A | No  | <-- LBFGS
 +-----------+-----------------+-----------------+------------+-----+ <-- LBFGS
  

================================================================================
 Starting LBFGS iteration          1 ...
================================================================================
  
 +------------+-------------+-------------+-----------------+ <-- min LBFGS
 |    Step    |   lambda    |   F.delta'  |    enthalpy     | <-- min LBFGS
 +------------+-------------+-------------+-----------------+ <-- min LBFGS
 |  previous  |    0.000000 |    2.702144 |     -337.812383 | <-- min LBFGS
 +------------+-------------+-------------+-----------------+ <-- min LBFGS
  

--------------------------------------------------------------------------------
 LBFGS: starting iteration         1 with trial guess (lambda=  1.000000)
--------------------------------------------------------------------------------
 
                           -------------------------------
                                     Cell Contents
                           -------------------------------
 
            xxxxxxxxxxxxxxxxxxxxxxxxxxxxxxxxxxxxxxxxxxxxxxxxxxxxxxxxxxxxxxxxx
            x  Element         Atom        Fractional coordinates of atoms  x
            x                 Number           u          v          w      x
            x---------------------------------------------------------------x
            x  Si                1         0.020914  -0.026331  -0.004362   x
            x  Si                2         0.247475   0.248856   0.251383   x
            x  H:mu              1         0.782602   0.352917   0.997016   x
            xxxxxxxxxxxxxxxxxxxxxxxxxxxxxxxxxxxxxxxxxxxxxxxxxxxxxxxxxxxxxxxxx
 
 
------------------------------------------------------------------------ <-- SCF
SCF loop      Energy                           Energy gain       Timer   <-- SCF
                                               per atom          (sec)   <-- SCF
------------------------------------------------------------------------ <-- SCF
Initial  -3.37810946E+002                                          5.95  <-- SCF
      1  -3.40123438E+002                    7.70830548E-001       5.96  <-- SCF
      2  -3.40134539E+002                    3.70032896E-003       5.97  <-- SCF
      3  -3.40201730E+002                    2.23969701E-002       5.98  <-- SCF
      4  -3.39871018E+002                   -1.10237389E-001       5.99  <-- SCF
      5  -3.39847814E+002                   -7.73448120E-003       5.99  <-- SCF
      6  -3.39839854E+002                   -2.65340307E-003       6.00  <-- SCF
      7  -3.39835299E+002                   -1.51833458E-003       6.01  <-- SCF
      8  -3.39836792E+002                    4.97730165E-004       6.02  <-- SCF
      9  -3.39835854E+002                   -3.12603572E-004       6.03  <-- SCF
     10  -3.39835513E+002                   -1.13707834E-004       6.04  <-- SCF
     11  -3.39835530E+002                    5.71750864E-006       6.05  <-- SCF
     12  -3.39835478E+002                   -1.74311449E-005       6.06  <-- SCF
     13  -3.39835462E+002                   -5.53260970E-006       6.07  <-- SCF
     14  -3.39835462E+002                    2.57435024E-008       6.08  <-- SCF
     15  -3.39835462E+002                   -3.55815910E-008       6.08  <-- SCF
     16  -3.39835462E+002                    4.35242035E-008       6.09  <-- SCF
     17  -3.39835462E+002                   -3.08911169E-008       6.10  <-- SCF
     18  -3.39835462E+002                    6.26413779E-008       6.11  <-- SCF
     19  -3.39835462E+002                   -7.78233298E-008       6.12  <-- SCF
     20  -3.39835462E+002                    2.86882697E-007       6.13  <-- SCF
     21  -3.39835462E+002                   -2.52802651E-007       6.14  <-- SCF
     22  -3.39835462E+002                   -1.29151338E-008       6.15  <-- SCF
     23  -3.39835462E+002                   -5.35477133E-009       6.16  <-- SCF
     24  -3.39835462E+002                    2.52145330E-008       6.17  <-- SCF
     25  -3.39835462E+002                   -3.09808467E-008       6.17  <-- SCF
     26  -3.39835462E+002                    1.83147716E-007       6.19  <-- SCF
     27  -3.39835462E+002                   -1.72385744E-007       6.20  <-- SCF
     28  -3.39835462E+002                   -1.48682117E-008       6.21  <-- SCF
     29  -3.39835462E+002                   -2.79163048E-010       6.21  <-- SCF
     30  -3.39835462E+002                    4.36326398E-008       6.22  <-- SCF
     31  -3.39835462E+002                   -1.99617853E-008       6.23  <-- SCF
     32  -3.39835463E+002                    2.95401811E-007       6.24  <-- SCF
     33  -3.39835462E+002                   -3.15580855E-007       6.25  <-- SCF
     34  -3.39835462E+002                    4.75041218E-009       6.26  <-- SCF
     35  -3.39835462E+002                   -3.64168728E-009       6.27  <-- SCF
------------------------------------------------------------------------ <-- SCF
 
Final energy =  -339.8354615835     eV
(energy not corrected for finite basis set)
 
 
 ************************************** Forces **************************************
 *                                                                                  *
 *                           Cartesian components (eV/A)                            *
 * -------------------------------------------------------------------------------- *
 *                         x                    y                    z              *
 *                                                                                  *
 * Si              1      1.91504              2.76537             -3.87109         *
 * Si              2     -1.59724             -1.44680             -1.14293         *
 * H:mu            1     -0.31781             -1.31857              5.01402         *
 *                                                                                  *
 ************************************************************************************
  
 +------------+-------------+-------------+-----------------+ <-- min LBFGS
 |    Step    |   lambda    |   F.delta'  |    enthalpy     | <-- min LBFGS
 +------------+-------------+-------------+-----------------+ <-- min LBFGS
 |  previous  |    0.000000 |    2.702144 |     -337.812383 | <-- min LBFGS
 | trial step |    1.000000 |    0.690708 |     -339.835462 | <-- min LBFGS
 +------------+-------------+-------------+-----------------+ <-- min LBFGS
  
 LBFGS: finished iteration     1 with enthalpy= -3.39835462E+002 eV
  
 +-----------+-----------------+-----------------+------------+-----+ <-- LBFGS
 | Parameter |      value      |    tolerance    |    units   | OK? | <-- LBFGS
 +-----------+-----------------+-----------------+------------+-----+ <-- LBFGS
 |  dE/ion   |   6.743595E-001 |   2.000000E-005 |         eV | No  | <-- LBFGS
 |  |F|max   |   5.194226E+000 |   5.000000E-002 |       eV/A | No  | <-- LBFGS
 |  |dR|max  |   9.520050E-002 |   1.000000E-003 |          A | No  | <-- LBFGS
 +-----------+-----------------+-----------------+------------+-----+ <-- LBFGS
  

================================================================================
 Starting LBFGS iteration          2 ...
================================================================================
  
 +------------+-------------+-------------+-----------------+ <-- min LBFGS
 |    Step    |   lambda    |   F.delta'  |    enthalpy     | <-- min LBFGS
 +------------+-------------+-------------+-----------------+ <-- min LBFGS
 |  previous  |    0.000000 |    0.809659 |     -339.835462 | <-- min LBFGS
 +------------+-------------+-------------+-----------------+ <-- min LBFGS
  

--------------------------------------------------------------------------------
 LBFGS: starting iteration         2 with trial guess (lambda=  1.000000)
--------------------------------------------------------------------------------
 
                           -------------------------------
                                     Cell Contents
                           -------------------------------
 
            xxxxxxxxxxxxxxxxxxxxxxxxxxxxxxxxxxxxxxxxxxxxxxxxxxxxxxxxxxxxxxxxx
            x  Element         Atom        Fractional coordinates of atoms  x
            x                 Number           u          v          w      x
            x---------------------------------------------------------------x
            x  Si                1         0.032884  -0.033551  -0.008465   x
            x  Si                2         0.244902   0.247130   0.250152   x
            x  H:mu              1         0.773206   0.361864   1.002350   x
            xxxxxxxxxxxxxxxxxxxxxxxxxxxxxxxxxxxxxxxxxxxxxxxxxxxxxxxxxxxxxxxxx
 
 
------------------------------------------------------------------------ <-- SCF
SCF loop      Energy                           Energy gain       Timer   <-- SCF
                                               per atom          (sec)   <-- SCF
------------------------------------------------------------------------ <-- SCF
Initial  -3.39620136E+002                                          6.31  <-- SCF
      1  -3.40298714E+002                    2.26192512E-001       6.31  <-- SCF
      2  -3.40300987E+002                    7.57711095E-004       6.32  <-- SCF
      3  -3.40357035E+002                    1.86829103E-002       6.33  <-- SCF
      4  -3.40212592E+002                   -4.81477315E-002       6.34  <-- SCF
      5  -3.40206532E+002                   -2.02021888E-003       6.35  <-- SCF
      6  -3.40205428E+002                   -3.67818216E-004       6.36  <-- SCF
      7  -3.40204699E+002                   -2.43000666E-004       6.37  <-- SCF
      8  -3.40204715E+002                    5.43018446E-006       6.38  <-- SCF
      9  -3.40204699E+002                   -5.53063236E-006       6.39  <-- SCF
     10  -3.40204712E+002                    4.28013592E-006       6.40  <-- SCF
     11  -3.40204698E+002                   -4.59683680E-006       6.40  <-- SCF
     12  -3.40204698E+002                   -2.73194862E-008       6.41  <-- SCF
     13  -3.40204698E+002                   -8.09128137E-009       6.42  <-- SCF
     14  -3.40204698E+002                    3.27456676E-009       6.42  <-- SCF
------------------------------------------------------------------------ <-- SCF
 
Final energy =  -340.2046978001     eV
(energy not corrected for finite basis set)
 
 
 ************************************** Forces **************************************
 *                                                                                  *
 *                           Cartesian components (eV/A)                            *
 * -------------------------------------------------------------------------------- *
 *                         x                    y                    z              *
 *                                                                                  *
 * Si              1      3.22688              2.14163             -1.66024         *
 * Si              2     -1.63423             -1.69543             -1.05606         *
 * H:mu            1     -1.59265             -0.44620              2.71630         *
 *                                                                                  *
 ************************************************************************************
  
 +------------+-------------+-------------+-----------------+ <-- min LBFGS
 |    Step    |   lambda    |   F.delta'  |    enthalpy     | <-- min LBFGS
 +------------+-------------+-------------+-----------------+ <-- min LBFGS
 |  previous  |    0.000000 |    0.809659 |     -339.835462 | <-- min LBFGS
 | trial step |    1.000000 |    0.526238 |     -340.204698 | <-- min LBFGS
 +------------+-------------+-------------+-----------------+ <-- min LBFGS
  

--------------------------------------------------------------------------------
 LBFGS: improving iteration         2 with line minimization (lambda=  2.856733)
--------------------------------------------------------------------------------
 
                           -------------------------------
                                     Cell Contents
                           -------------------------------
 
            xxxxxxxxxxxxxxxxxxxxxxxxxxxxxxxxxxxxxxxxxxxxxxxxxxxxxxxxxxxxxxxxx
            x  Element         Atom        Fractional coordinates of atoms  x
            x                 Number           u          v          w      x
            x---------------------------------------------------------------x
            x  Si                1         0.055108  -0.046957  -0.016083   x
            x  Si                2         0.240124   0.243924   0.247865   x
            x  H:mu              1         0.755759   0.378476   1.012254   x
            xxxxxxxxxxxxxxxxxxxxxxxxxxxxxxxxxxxxxxxxxxxxxxxxxxxxxxxxxxxxxxxxx
 
 
------------------------------------------------------------------------ <-- SCF
SCF loop      Energy                           Energy gain       Timer   <-- SCF
                                               per atom          (sec)   <-- SCF
------------------------------------------------------------------------ <-- SCF
Initial  -3.39601720E+002                                          6.45  <-- SCF
      1  -3.40657318E+002                    3.51865938E-001       6.45  <-- SCF
      2  -3.40661654E+002                    1.44533417E-003       6.46  <-- SCF
      3  -3.40557397E+002                   -3.47522798E-002       6.47  <-- SCF
      4  -3.40535917E+002                   -7.16009654E-003       6.48  <-- SCF
      5  -3.40534997E+002                   -3.06697475E-004       6.49  <-- SCF
      6  -3.40534940E+002                   -1.88672500E-005       6.50  <-- SCF
      7  -3.40534911E+002                   -9.69085156E-006       6.50  <-- SCF
      8  -3.40534912E+002                    3.49552932E-007       6.51  <-- SCF
      9  -3.40534912E+002                   -4.63723884E-009       6.52  <-- SCF
     10  -3.40534912E+002                   -5.92555230E-009       6.53  <-- SCF
     11  -3.40534912E+002                    3.29979874E-009       6.53  <-- SCF
------------------------------------------------------------------------ <-- SCF
 
Final energy =  -340.5349120841     eV
(energy not corrected for finite basis set)
 
 
 ************************************** Forces **************************************
 *                                                                                  *
 *                           Cartesian components (eV/A)                            *
 * -------------------------------------------------------------------------------- *
 *                         x                    y                    z              *
 *                                                                                  *
 * Si              1      4.38990              1.04299              1.05155         *
 * Si              2     -1.41999             -1.30051             -0.79493         *
 * H:mu            1     -2.96991              0.25752             -0.25662         *
 *                                                                                  *
 ************************************************************************************
  
 +------------+-------------+-------------+-----------------+ <-- min LBFGS
 |    Step    |   lambda    |   F.delta'  |    enthalpy     | <-- min LBFGS
 +------------+-------------+-------------+-----------------+ <-- min LBFGS
 |  previous  |    0.000000 |    0.809659 |     -339.835462 | <-- min LBFGS
 | trial step |    1.000000 |    0.526238 |     -340.204698 | <-- min LBFGS
 |  line step |    2.856733 |    0.131324 |     -340.534912 | <-- min LBFGS
 +------------+-------------+-------------+-----------------+ <-- min LBFGS
  
 LBFGS: finished iteration     2 with enthalpy= -3.40534912E+002 eV
  
 +-----------+-----------------+-----------------+------------+-----+ <-- LBFGS
 | Parameter |      value      |    tolerance    |    units   | OK? | <-- LBFGS
 +-----------+-----------------+-----------------+------------+-----+ <-- LBFGS
 |  dE/ion   |   2.331502E-001 |   2.000000E-005 |         eV | No  | <-- LBFGS
 |  |F|max   |   4.633013E+000 |   5.000000E-002 |       eV/A | No  | <-- LBFGS
 |  |dR|max  |   1.143837E-001 |   1.000000E-003 |          A | No  | <-- LBFGS
 +-----------+-----------------+-----------------+------------+-----+ <-- LBFGS
  

================================================================================
 Starting LBFGS iteration          3 ...
================================================================================
  
 +------------+-------------+-------------+-----------------+ <-- min LBFGS
 |    Step    |   lambda    |   F.delta'  |    enthalpy     | <-- min LBFGS
 +------------+-------------+-------------+-----------------+ <-- min LBFGS
 |  previous  |    0.000000 |    0.427555 |     -340.534912 | <-- min LBFGS
 +------------+-------------+-------------+-----------------+ <-- min LBFGS
  

--------------------------------------------------------------------------------
 LBFGS: starting iteration         3 with trial guess (lambda=  1.000000)
--------------------------------------------------------------------------------
 
                           -------------------------------
                                     Cell Contents
                           -------------------------------
 
            xxxxxxxxxxxxxxxxxxxxxxxxxxxxxxxxxxxxxxxxxxxxxxxxxxxxxxxxxxxxxxxxx
            x  Element         Atom        Fractional coordinates of atoms  x
            x                 Number           u          v          w      x
            x---------------------------------------------------------------x
            x  Si                1         0.070666  -0.048907  -0.022190   x
            x  Si                2         0.235744   0.241447   0.246183   x
            x  H:mu              1         0.744581   0.382902   1.020045   x
            xxxxxxxxxxxxxxxxxxxxxxxxxxxxxxxxxxxxxxxxxxxxxxxxxxxxxxxxxxxxxxxxx
 
 
------------------------------------------------------------------------ <-- SCF
SCF loop      Energy                           Energy gain       Timer   <-- SCF
                                               per atom          (sec)   <-- SCF
------------------------------------------------------------------------ <-- SCF
Initial  -3.40515697E+002                                          6.57  <-- SCF
      1  -3.40766265E+002                    8.35224823E-002       6.57  <-- SCF
      2  -3.40772472E+002                    2.06919657E-003       6.58  <-- SCF
      3  -3.40752850E+002                   -6.54090241E-003       6.59  <-- SCF
      4  -3.40751933E+002                   -3.05667321E-004       6.60  <-- SCF
      5  -3.40751958E+002                    8.32032221E-006       6.60  <-- SCF
      6  -3.40751952E+002                   -1.99989725E-006       6.61  <-- SCF
      7  -3.40751952E+002                    2.17083831E-007       6.62  <-- SCF
      8  -3.40751952E+002                   -1.94203047E-007       6.63  <-- SCF
      9  -3.40751952E+002                    2.80559991E-009       6.63  <-- SCF
     10  -3.40751952E+002                    1.41411890E-009       6.64  <-- SCF
------------------------------------------------------------------------ <-- SCF
 
Final energy =  -340.7519517026     eV
(energy not corrected for finite basis set)
 
 
 ************************************** Forces **************************************
 *                                                                                  *
 *                           Cartesian components (eV/A)                            *
 * -------------------------------------------------------------------------------- *
 *                         x                    y                    z              *
 *                                                                                  *
 * Si              1      3.97062              0.38058              1.30767         *
 * Si              2     -0.83052             -0.65015              0.03199         *
 * H:mu            1     -3.14011              0.26957             -1.33966         *
 *                                                                                  *
 ************************************************************************************
  
 +------------+-------------+-------------+-----------------+ <-- min LBFGS
 |    Step    |   lambda    |   F.delta'  |    enthalpy     | <-- min LBFGS
 +------------+-------------+-------------+-----------------+ <-- min LBFGS
 |  previous  |    0.000000 |    0.427555 |     -340.534912 | <-- min LBFGS
 | trial step |    1.000000 |    0.263782 |     -340.751952 | <-- min LBFGS
 +------------+-------------+-------------+-----------------+ <-- min LBFGS
  

--------------------------------------------------------------------------------
 LBFGS: improving iteration         3 with line minimization (lambda=  2.610650)
--------------------------------------------------------------------------------
 
                           -------------------------------
                                     Cell Contents
                           -------------------------------
 
            xxxxxxxxxxxxxxxxxxxxxxxxxxxxxxxxxxxxxxxxxxxxxxxxxxxxxxxxxxxxxxxxx
            x  Element         Atom        Fractional coordinates of atoms  x
            x                 Number           u          v          w      x
            x---------------------------------------------------------------x
            x  Si                1         0.095725  -0.052047  -0.032028   x
            x  Si                2         0.228688   0.237459   0.243473   x
            x  H:mu              1         0.726578   0.390030   1.032592   x
            xxxxxxxxxxxxxxxxxxxxxxxxxxxxxxxxxxxxxxxxxxxxxxxxxxxxxxxxxxxxxxxxx
 
 
------------------------------------------------------------------------ <-- SCF
SCF loop      Energy                           Energy gain       Timer   <-- SCF
                                               per atom          (sec)   <-- SCF
------------------------------------------------------------------------ <-- SCF
Initial  -3.40633111E+002                                          6.66  <-- SCF
      1  -3.40862374E+002                    7.64208874E-002       6.67  <-- SCF
      2  -3.40879180E+002                    5.60208384E-003       6.67  <-- SCF
      3  -3.40855534E+002                   -7.88206322E-003       6.68  <-- SCF
      4  -3.40855310E+002                   -7.46861481E-005       6.69  <-- SCF
      5  -3.40855336E+002                    8.74290601E-006       6.70  <-- SCF
      6  -3.40855345E+002                    3.00544751E-006       6.70  <-- SCF
      7  -3.40855345E+002                    1.82275360E-007       6.71  <-- SCF
      8  -3.40855345E+002                    4.54198247E-009       6.72  <-- SCF
      9  -3.40855345E+002                    2.78932641E-009       6.72  <-- SCF
------------------------------------------------------------------------ <-- SCF
 
Final energy =  -340.8553454617     eV
(energy not corrected for finite basis set)
 
 
 ************************************** Forces **************************************
 *                                                                                  *
 *                           Cartesian components (eV/A)                            *
 * -------------------------------------------------------------------------------- *
 *                         x                    y                    z              *
 *                                                                                  *
 * Si              1      2.53997             -1.09403              1.44990         *
 * Si              2      0.38980              0.46129              1.24090         *
 * H:mu            1     -2.92977              0.63274             -2.69080         *
 *                                                                                  *
 ************************************************************************************
  
 +------------+-------------+-------------+-----------------+ <-- min LBFGS
 |    Step    |   lambda    |   F.delta'  |    enthalpy     | <-- min LBFGS
 +------------+-------------+-------------+-----------------+ <-- min LBFGS
 |  previous  |    0.000000 |    0.427555 |     -340.534912 | <-- min LBFGS
 | trial step |    1.000000 |    0.263782 |     -340.751952 | <-- min LBFGS
 |  line step |    2.610650 |   -0.058051 |     -340.855345 | <-- min LBFGS
 +------------+-------------+-------------+-----------------+ <-- min LBFGS
  
 LBFGS: finished iteration     3 with enthalpy= -3.40855345E+002 eV
  
 +-----------+-----------------+-----------------+------------+-----+ <-- LBFGS
 | Parameter |      value      |    tolerance    |    units   | OK? | <-- LBFGS
 +-----------+-----------------+-----------------+------------+-----+ <-- LBFGS
 |  dE/ion   |   1.068111E-001 |   2.000000E-005 |         eV | No  | <-- LBFGS
 |  |F|max   |   4.027942E+000 |   5.000000E-002 |       eV/A | No  | <-- LBFGS
 |  |dR|max  |   1.296462E-001 |   1.000000E-003 |          A | No  | <-- LBFGS
 +-----------+-----------------+-----------------+------------+-----+ <-- LBFGS
  

================================================================================
 Starting LBFGS iteration          4 ...
================================================================================
  
 +------------+-------------+-------------+-----------------+ <-- min LBFGS
 |    Step    |   lambda    |   F.delta'  |    enthalpy     | <-- min LBFGS
 +------------+-------------+-------------+-----------------+ <-- min LBFGS
 |  previous  |    0.000000 |    0.594334 |     -340.855345 | <-- min LBFGS
 +------------+-------------+-------------+-----------------+ <-- min LBFGS
  

--------------------------------------------------------------------------------
 LBFGS: starting iteration         4 with trial guess (lambda=  1.000000)
--------------------------------------------------------------------------------
 
                           -------------------------------
                                     Cell Contents
                           -------------------------------
 
            xxxxxxxxxxxxxxxxxxxxxxxxxxxxxxxxxxxxxxxxxxxxxxxxxxxxxxxxxxxxxxxxx
            x  Element         Atom        Fractional coordinates of atoms  x
            x                 Number           u          v          w      x
            x---------------------------------------------------------------x
            x  Si                1         0.093102  -0.045033  -0.033089   x
            x  Si                2         0.228766   0.238813   0.244883   x
            x  H:mu              1         0.729123   0.381662   1.032243   x
            xxxxxxxxxxxxxxxxxxxxxxxxxxxxxxxxxxxxxxxxxxxxxxxxxxxxxxxxxxxxxxxxx
 
 
------------------------------------------------------------------------ <-- SCF
SCF loop      Energy                           Energy gain       Timer   <-- SCF
                                               per atom          (sec)   <-- SCF
------------------------------------------------------------------------ <-- SCF
Initial  -3.41219304E+002                                          6.76  <-- SCF
      1  -3.41031898E+002                   -6.24683806E-002       6.76  <-- SCF
      2  -3.41033380E+002                    4.93935834E-004       6.77  <-- SCF
      3  -3.41030859E+002                   -8.40359320E-004       6.78  <-- SCF
      4  -3.41030686E+002                   -5.77253520E-005       6.78  <-- SCF
      5  -3.41030693E+002                    2.29536235E-006       6.79  <-- SCF
      6  -3.41030692E+002                   -2.27164298E-007       6.80  <-- SCF
      7  -3.41030692E+002                   -3.56223714E-008       6.81  <-- SCF
      8  -3.41030692E+002                   -7.53479209E-009       6.81  <-- SCF
      9  -3.41030692E+002                    1.38714678E-009       6.82  <-- SCF
------------------------------------------------------------------------ <-- SCF
 
Final energy =  -341.0306921278     eV
(energy not corrected for finite basis set)
 
 
 ************************************** Forces **************************************
 *                                                                                  *
 *                           Cartesian components (eV/A)                            *
 * -------------------------------------------------------------------------------- *
 *                         x                    y                    z              *
 *                                                                                  *
 * Si              1      2.24946             -0.65423              0.88053         *
 * Si              2      0.48401              0.17557              1.42314         *
 * H:mu            1     -2.73347              0.47867             -2.30367         *
 *                                                                                  *
 ************************************************************************************
  
 +------------+-------------+-------------+-----------------+ <-- min LBFGS
 |    Step    |   lambda    |   F.delta'  |    enthalpy     | <-- min LBFGS
 +------------+-------------+-------------+-----------------+ <-- min LBFGS
 |  previous  |    0.000000 |    0.594334 |     -340.855345 | <-- min LBFGS
 | trial step |    1.000000 |    0.502073 |     -341.030692 | <-- min LBFGS
 +------------+-------------+-------------+-----------------+ <-- min LBFGS
  

--------------------------------------------------------------------------------
 LBFGS: improving iteration         4 with line minimization (lambda=  6.441881)
--------------------------------------------------------------------------------
 
                           -------------------------------
                                     Cell Contents
                           -------------------------------
 
            xxxxxxxxxxxxxxxxxxxxxxxxxxxxxxxxxxxxxxxxxxxxxxxxxxxxxxxxxxxxxxxxx
            x  Element         Atom        Fractional coordinates of atoms  x
            x                 Number           u          v          w      x
            x---------------------------------------------------------------x
            x  Si                1         0.078829  -0.006863  -0.038865   x
            x  Si                2         0.229189   0.246182   0.252559   x
            x  H:mu              1         0.742974   0.336123   1.030344   x
            xxxxxxxxxxxxxxxxxxxxxxxxxxxxxxxxxxxxxxxxxxxxxxxxxxxxxxxxxxxxxxxxx
 
 
------------------------------------------------------------------------ <-- SCF
SCF loop      Energy                           Energy gain       Timer   <-- SCF
                                               per atom          (sec)   <-- SCF
------------------------------------------------------------------------ <-- SCF
Initial  -3.42556972E+002                                          6.84  <-- SCF
      1  -3.41391520E+002                   -3.88484078E-001       6.85  <-- SCF
      2  -3.41420800E+002                    9.76019891E-003       6.86  <-- SCF
      3  -3.41316404E+002                   -3.47987493E-002       6.86  <-- SCF
      4  -3.41300285E+002                   -5.37316617E-003       6.87  <-- SCF
      5  -3.41300029E+002                   -8.53661549E-005       6.88  <-- SCF
      6  -3.41300041E+002                    4.06956529E-006       6.88  <-- SCF
      7  -3.41300048E+002                    2.42223564E-006       6.89  <-- SCF
      8  -3.41300046E+002                   -7.95370906E-007       6.90  <-- SCF
      9  -3.41300046E+002                    2.70640406E-008       6.91  <-- SCF
     10  -3.41300046E+002                   -4.57125865E-009       6.91  <-- SCF
     11  -3.41300046E+002                    6.95394089E-010       6.92  <-- SCF
------------------------------------------------------------------------ <-- SCF
 
Final energy =  -341.3000457772     eV
(energy not corrected for finite basis set)
 
 
 ************************************** Forces **************************************
 *                                                                                  *
 *                           Cartesian components (eV/A)                            *
 * -------------------------------------------------------------------------------- *
 *                         x                    y                    z              *
 *                                                                                  *
 * Si              1      0.83357              2.85186             -3.87985         *
 * Si              2      0.87415             -1.09203              2.05727         *
 * H:mu            1     -1.70772             -1.75982              1.82258         *
 *                                                                                  *
 ************************************************************************************
  
 +------------+-------------+-------------+-----------------+ <-- min LBFGS
 |    Step    |   lambda    |   F.delta'  |    enthalpy     | <-- min LBFGS
 +------------+-------------+-------------+-----------------+ <-- min LBFGS
 |  previous  |    0.000000 |    0.594334 |     -340.855345 | <-- min LBFGS
 | trial step |    1.000000 |    0.502073 |     -341.030692 | <-- min LBFGS
 |  line step |    6.441881 |   -0.290740 |     -341.300046 | <-- min LBFGS
 +------------+-------------+-------------+-----------------+ <-- min LBFGS
  
 LBFGS: finished iteration     4 with enthalpy= -3.41300046E+002 eV
  
 +-----------+-----------------+-----------------+------------+-----+ <-- LBFGS
 | Parameter |      value      |    tolerance    |    units   | OK? | <-- LBFGS
 +-----------+-----------------+-----------------+------------+-----+ <-- LBFGS
 |  dE/ion   |   1.482334E-001 |   2.000000E-005 |         eV | No  | <-- LBFGS
 |  |F|max   |   4.886836E+000 |   5.000000E-002 |       eV/A | No  | <-- LBFGS
 |  |dR|max  |   1.859810E-001 |   1.000000E-003 |          A | No  | <-- LBFGS
 +-----------+-----------------+-----------------+------------+-----+ <-- LBFGS
  

================================================================================
 Starting LBFGS iteration          5 ...
================================================================================

Writing analysis data to ./castep-pymuonsuite-test-data/muon-airss-out-castep/castep/Si2_22/Si2_22.castep_bin

Writing model to ./castep-pymuonsuite-test-data/muon-airss-out-castep/castep/Si2_22/Si2_22.check
  
 +------------+-------------+-------------+-----------------+ <-- min LBFGS
 |    Step    |   lambda    |   F.delta'  |    enthalpy     | <-- min LBFGS
 +------------+-------------+-------------+-----------------+ <-- min LBFGS
 |  previous  |    0.000000 |    0.501062 |     -341.300046 | <-- min LBFGS
 +------------+-------------+-------------+-----------------+ <-- min LBFGS
  

--------------------------------------------------------------------------------
 LBFGS: starting iteration         5 with trial guess (lambda=  1.000000)
--------------------------------------------------------------------------------
 
                           -------------------------------
                                     Cell Contents
                           -------------------------------
 
            xxxxxxxxxxxxxxxxxxxxxxxxxxxxxxxxxxxxxxxxxxxxxxxxxxxxxxxxxxxxxxxxx
            x  Element         Atom        Fractional coordinates of atoms  x
            x                 Number           u          v          w      x
            x---------------------------------------------------------------x
            x  Si                1         0.107659  -0.012930  -0.050728   x
            x  Si                2         0.221103   0.245950   0.251069   x
            x  H:mu              1         0.722229   0.342422   1.043696   x
            xxxxxxxxxxxxxxxxxxxxxxxxxxxxxxxxxxxxxxxxxxxxxxxxxxxxxxxxxxxxxxxxx
 
 
------------------------------------------------------------------------ <-- SCF
SCF loop      Energy                           Energy gain       Timer   <-- SCF
                                               per atom          (sec)   <-- SCF
------------------------------------------------------------------------ <-- SCF
Initial  -3.41061181E+002                                          7.00  <-- SCF
      1  -3.41577636E+002                    1.72151847E-001       7.00  <-- SCF
      2  -3.41587556E+002                    3.30656250E-003       7.01  <-- SCF
      3  -3.41549700E+002                   -1.26186813E-002       7.02  <-- SCF
      4  -3.41547988E+002                   -5.70704201E-004       7.03  <-- SCF
      5  -3.41548081E+002                    3.12381461E-005       7.03  <-- SCF
      6  -3.41548089E+002                    2.49433572E-006       7.04  <-- SCF
      7  -3.41548089E+002                   -8.53074646E-009       7.05  <-- SCF
      8  -3.41548089E+002                    1.89130951E-008       7.05  <-- SCF
      9  -3.41548089E+002                    4.05055496E-009       7.06  <-- SCF
     10  -3.41548089E+002                    1.09765570E-009       7.06  <-- SCF
------------------------------------------------------------------------ <-- SCF
 
Final energy =  -341.5480888321     eV
(energy not corrected for finite basis set)
 
 
 ************************************** Forces **************************************
 *                                                                                  *
 *                           Cartesian components (eV/A)                            *
 * -------------------------------------------------------------------------------- *
 *                         x                    y                    z              *
 *                                                                                  *
 * Si              1     -1.05431              0.21125             -1.52149         *
 * Si              2      2.40635             -0.14855              2.43816         *
 * H:mu            1     -1.35205             -0.06270             -0.91667         *
 *                                                                                  *
 ************************************************************************************
  
 +------------+-------------+-------------+-----------------+ <-- min LBFGS
 |    Step    |   lambda    |   F.delta'  |    enthalpy     | <-- min LBFGS
 +------------+-------------+-------------+-----------------+ <-- min LBFGS
 |  previous  |    0.000000 |    0.501062 |     -341.300046 | <-- min LBFGS
 | trial step |    1.000000 |   -0.033255 |     -341.548089 | <-- min LBFGS
 +------------+-------------+-------------+-----------------+ <-- min LBFGS
  
 LBFGS: finished iteration     5 with enthalpy= -3.41548089E+002 eV
  
 +-----------+-----------------+-----------------+------------+-----+ <-- LBFGS
 | Parameter |      value      |    tolerance    |    units   | OK? | <-- LBFGS
 +-----------+-----------------+-----------------+------------+-----+ <-- LBFGS
 |  dE/ion   |   8.268102E-002 |   2.000000E-005 |         eV | No  | <-- LBFGS
 |  |F|max   |   3.428882E+000 |   5.000000E-002 |       eV/A | No  | <-- LBFGS
 |  |dR|max  |   9.050987E-002 |   1.000000E-003 |          A | No  | <-- LBFGS
 +-----------+-----------------+-----------------+------------+-----+ <-- LBFGS
  

================================================================================
 Starting LBFGS iteration          6 ...
================================================================================
  
 +------------+-------------+-------------+-----------------+ <-- min LBFGS
 |    Step    |   lambda    |   F.delta'  |    enthalpy     | <-- min LBFGS
 +------------+-------------+-------------+-----------------+ <-- min LBFGS
 |  previous  |    0.000000 |    0.442305 |     -341.548089 | <-- min LBFGS
 +------------+-------------+-------------+-----------------+ <-- min LBFGS
  

--------------------------------------------------------------------------------
 LBFGS: starting iteration         6 with trial guess (lambda=  1.000000)
--------------------------------------------------------------------------------
 
                           -------------------------------
                                     Cell Contents
                           -------------------------------
 
            xxxxxxxxxxxxxxxxxxxxxxxxxxxxxxxxxxxxxxxxxxxxxxxxxxxxxxxxxxxxxxxxx
            x  Element         Atom        Fractional coordinates of atoms  x
            x                 Number           u          v          w      x
            x---------------------------------------------------------------x
            x  Si                1         0.109743  -0.012344  -0.052723   x
            x  Si                2         0.220062   0.252076   0.251754   x
            x  H:mu              1         0.721186   0.335710   1.045006   x
            xxxxxxxxxxxxxxxxxxxxxxxxxxxxxxxxxxxxxxxxxxxxxxxxxxxxxxxxxxxxxxxxx
 
 
------------------------------------------------------------------------ <-- SCF
SCF loop      Energy                           Energy gain       Timer   <-- SCF
                                               per atom          (sec)   <-- SCF
------------------------------------------------------------------------ <-- SCF
Initial  -3.41772460E+002                                          7.10  <-- SCF
      1  -3.41658065E+002                   -3.81317168E-002       7.10  <-- SCF
      2  -3.41659294E+002                    4.09707865E-004       7.11  <-- SCF
      3  -3.41656930E+002                   -7.87846560E-004       7.12  <-- SCF
      4  -3.41656823E+002                   -3.56322565E-005       7.13  <-- SCF
      5  -3.41656809E+002                   -4.63359512E-006       7.14  <-- SCF
      6  -3.41656809E+002                    2.36903183E-008       7.15  <-- SCF
      7  -3.41656809E+002                    4.88588504E-009       7.15  <-- SCF
      8  -3.41656809E+002                   -5.09658660E-009       7.16  <-- SCF
------------------------------------------------------------------------ <-- SCF
 
Final energy =  -341.6568094123     eV
(energy not corrected for finite basis set)
 
 
 ************************************** Forces **************************************
 *                                                                                  *
 *                           Cartesian components (eV/A)                            *
 * -------------------------------------------------------------------------------- *
 *                         x                    y                    z              *
 *                                                                                  *
 * Si              1     -0.97237              0.47323             -1.14203         *
 * Si              2      2.30666             -0.25009              1.79975         *
 * H:mu            1     -1.33430             -0.22314             -0.65772         *
 *                                                                                  *
 ************************************************************************************
  
 +------------+-------------+-------------+-----------------+ <-- min LBFGS
 |    Step    |   lambda    |   F.delta'  |    enthalpy     | <-- min LBFGS
 +------------+-------------+-------------+-----------------+ <-- min LBFGS
 |  previous  |    0.000000 |    0.442305 |     -341.548089 | <-- min LBFGS
 | trial step |    1.000000 |    0.374526 |     -341.656809 | <-- min LBFGS
 +------------+-------------+-------------+-----------------+ <-- min LBFGS
  

--------------------------------------------------------------------------------
 LBFGS: improving iteration         6 with line minimization (lambda=  6.525615)
--------------------------------------------------------------------------------
 
                           -------------------------------
                                     Cell Contents
                           -------------------------------
 
            xxxxxxxxxxxxxxxxxxxxxxxxxxxxxxxxxxxxxxxxxxxxxxxxxxxxxxxxxxxxxxxxx
            x  Element         Atom        Fractional coordinates of atoms  x
            x                 Number           u          v          w      x
            x---------------------------------------------------------------x
            x  Si                1         0.121262  -0.009104  -0.063748   x
            x  Si                2         0.214305   0.285929   0.255540   x
            x  H:mu              1         0.715424   0.298617   1.052246   x
            xxxxxxxxxxxxxxxxxxxxxxxxxxxxxxxxxxxxxxxxxxxxxxxxxxxxxxxxxxxxxxxxx
 
 
------------------------------------------------------------------------ <-- SCF
SCF loop      Energy                           Energy gain       Timer   <-- SCF
                                               per atom          (sec)   <-- SCF
------------------------------------------------------------------------ <-- SCF
Initial  -3.42521437E+002                                          7.18  <-- SCF
      1  -3.41958681E+002                   -1.87585463E-001       7.19  <-- SCF
      2  -3.41985706E+002                    9.00848990E-003       7.19  <-- SCF
      3  -3.41919152E+002                   -2.21847017E-002       7.20  <-- SCF
      4  -3.41916875E+002                   -7.58864755E-004       7.21  <-- SCF
      5  -3.41916577E+002                   -9.93400706E-005       7.22  <-- SCF
      6  -3.41916621E+002                    1.44613491E-005       7.22  <-- SCF
      7  -3.41916613E+002                   -2.66434714E-006       7.23  <-- SCF
      8  -3.41916613E+002                    2.76189235E-007       7.24  <-- SCF
      9  -3.41916613E+002                   -3.82326732E-008       7.25  <-- SCF
     10  -3.41916613E+002                    1.64919848E-009       7.25  <-- SCF
     11  -3.41916613E+002                    2.20114408E-009       7.26  <-- SCF
------------------------------------------------------------------------ <-- SCF
 
Final energy =  -341.9166133894     eV
(energy not corrected for finite basis set)
 
 
 ************************************** Forces **************************************
 *                                                                                  *
 *                           Cartesian components (eV/A)                            *
 * -------------------------------------------------------------------------------- *
 *                         x                    y                    z              *
 *                                                                                  *
 * Si              1     -0.14679              1.55964              1.23298         *
 * Si              2      1.23987             -0.71676             -1.78897         *
 * H:mu            1     -1.09308             -0.84288              0.55599         *
 *                                                                                  *
 ************************************************************************************
  
 +------------+-------------+-------------+-----------------+ <-- min LBFGS
 |    Step    |   lambda    |   F.delta'  |    enthalpy     | <-- min LBFGS
 +------------+-------------+-------------+-----------------+ <-- min LBFGS
 |  previous  |    0.000000 |    0.442305 |     -341.548089 | <-- min LBFGS
 | trial step |    1.000000 |    0.374526 |     -341.656809 | <-- min LBFGS
 |  line step |    6.525615 |   -0.023979 |     -341.916613 | <-- min LBFGS
 +------------+-------------+-------------+-----------------+ <-- min LBFGS
  
 LBFGS: finished iteration     6 with enthalpy= -3.41916613E+002 eV
  
 +-----------+-----------------+-----------------+------------+-----+ <-- LBFGS
 | Parameter |      value      |    tolerance    |    units   | OK? | <-- LBFGS
 +-----------+-----------------+-----------------+------------+-----+ <-- LBFGS
 |  dE/ion   |   1.228415E-001 |   2.000000E-005 |         eV | No  | <-- LBFGS
 |  |F|max   |   2.291604E+000 |   5.000000E-002 |       eV/A | No  | <-- LBFGS
 |  |dR|max  |   1.663218E-001 |   1.000000E-003 |          A | No  | <-- LBFGS
 +-----------+-----------------+-----------------+------------+-----+ <-- LBFGS
  

================================================================================
 Starting LBFGS iteration          7 ...
================================================================================
  
 +------------+-------------+-------------+-----------------+ <-- min LBFGS
 |    Step    |   lambda    |   F.delta'  |    enthalpy     | <-- min LBFGS
 +------------+-------------+-------------+-----------------+ <-- min LBFGS
 |  previous  |    0.000000 |    0.259447 |     -341.916613 | <-- min LBFGS
 +------------+-------------+-------------+-----------------+ <-- min LBFGS
  

--------------------------------------------------------------------------------
 LBFGS: starting iteration         7 with trial guess (lambda=  1.000000)
--------------------------------------------------------------------------------
 
                           -------------------------------
                                     Cell Contents
                           -------------------------------
 
            xxxxxxxxxxxxxxxxxxxxxxxxxxxxxxxxxxxxxxxxxxxxxxxxxxxxxxxxxxxxxxxxx
            x  Element         Atom        Fractional coordinates of atoms  x
            x                 Number           u          v          w      x
            x---------------------------------------------------------------x
            x  Si                1         0.126230  -0.008151  -0.064100   x
            x  Si                2         0.214785   0.288170   0.252339   x
            x  H:mu              1         0.709976   0.295423   1.055798   x
            xxxxxxxxxxxxxxxxxxxxxxxxxxxxxxxxxxxxxxxxxxxxxxxxxxxxxxxxxxxxxxxxx
 
 
------------------------------------------------------------------------ <-- SCF
SCF loop      Energy                           Energy gain       Timer   <-- SCF
                                               per atom          (sec)   <-- SCF
------------------------------------------------------------------------ <-- SCF
Initial  -3.41993272E+002                                          7.29  <-- SCF
      1  -3.41978747E+002                   -4.84172943E-003       7.30  <-- SCF
      2  -3.41979417E+002                    2.23262726E-004       7.30  <-- SCF
      3  -3.41974177E+002                   -1.74662233E-003       7.31  <-- SCF
      4  -3.41973806E+002                   -1.23555802E-004       7.32  <-- SCF
      5  -3.41973812E+002                    1.77335360E-006       7.32  <-- SCF
      6  -3.41973810E+002                   -3.78330637E-007       7.33  <-- SCF
      7  -3.41973811E+002                    5.85535067E-008       7.34  <-- SCF
      8  -3.41973811E+002                   -6.86725630E-010       7.34  <-- SCF
      9  -3.41973811E+002                    9.64905822E-010       7.35  <-- SCF
------------------------------------------------------------------------ <-- SCF
 
Final energy =  -341.9738105765     eV
(energy not corrected for finite basis set)
 
 
 ************************************** Forces **************************************
 *                                                                                  *
 *                           Cartesian components (eV/A)                            *
 * -------------------------------------------------------------------------------- *
 *                         x                    y                    z              *
 *                                                                                  *
 * Si              1     -0.45749              0.85216              1.10294         *
 * Si              2      1.39118             -0.20240             -1.46423         *
 * H:mu            1     -0.93370             -0.64977              0.36129         *
 *                                                                                  *
 ************************************************************************************
  
 +------------+-------------+-------------+-----------------+ <-- min LBFGS
 |    Step    |   lambda    |   F.delta'  |    enthalpy     | <-- min LBFGS
 +------------+-------------+-------------+-----------------+ <-- min LBFGS
 |  previous  |    0.000000 |    0.259447 |     -341.916613 | <-- min LBFGS
 | trial step |    1.000000 |    0.174561 |     -341.973811 | <-- min LBFGS
 +------------+-------------+-------------+-----------------+ <-- min LBFGS
  

--------------------------------------------------------------------------------
 LBFGS: improving iteration         7 with line minimization (lambda=  3.056432)
--------------------------------------------------------------------------------
 
                           -------------------------------
                                     Cell Contents
                           -------------------------------
 
            xxxxxxxxxxxxxxxxxxxxxxxxxxxxxxxxxxxxxxxxxxxxxxxxxxxxxxxxxxxxxxxxx
            x  Element         Atom        Fractional coordinates of atoms  x
            x                 Number           u          v          w      x
            x---------------------------------------------------------------x
            x  Si                1         0.136446  -0.006193  -0.064824   x
            x  Si                2         0.215773   0.292779   0.245757   x
            x  H:mu              1         0.698772   0.288856   1.063103   x
            xxxxxxxxxxxxxxxxxxxxxxxxxxxxxxxxxxxxxxxxxxxxxxxxxxxxxxxxxxxxxxxxx
 
 
------------------------------------------------------------------------ <-- SCF
SCF loop      Energy                           Energy gain       Timer   <-- SCF
                                               per atom          (sec)   <-- SCF
------------------------------------------------------------------------ <-- SCF
Initial  -3.42072542E+002                                          7.37  <-- SCF
      1  -3.42044308E+002                   -9.41131559E-003       7.38  <-- SCF
      2  -3.42047175E+002                    9.55734611E-004       7.39  <-- SCF
      3  -3.42022103E+002                   -8.35731671E-003       7.39  <-- SCF
      4  -3.42020106E+002                   -6.65945589E-004       7.40  <-- SCF
      5  -3.42020122E+002                    5.40463664E-006       7.41  <-- SCF
      6  -3.42020118E+002                   -1.17499535E-006       7.41  <-- SCF
      7  -3.42020119E+002                    1.35123664E-007       7.42  <-- SCF
      8  -3.42020119E+002                    4.66680505E-009       7.43  <-- SCF
      9  -3.42020119E+002                    3.10346943E-009       7.43  <-- SCF
------------------------------------------------------------------------ <-- SCF
 
Final energy =  -342.0201187695     eV
(energy not corrected for finite basis set)
 
 
 ************************************** Forces **************************************
 *                                                                                  *
 *                           Cartesian components (eV/A)                            *
 * -------------------------------------------------------------------------------- *
 *                         x                    y                    z              *
 *                                                                                  *
 * Si              1     -1.13091             -0.57008              0.67806         *
 * Si              2      1.70977              0.85568             -0.69944         *
 * H:mu            1     -0.57886             -0.28560              0.02139         *
 *                                                                                  *
 ************************************************************************************
  
 +------------+-------------+-------------+-----------------+ <-- min LBFGS
 |    Step    |   lambda    |   F.delta'  |    enthalpy     | <-- min LBFGS
[...]
 *                         x                    y                    z              *
 *                                                                                  *
 * Si              1     -0.05322              0.07565             -0.03489         *
 * Si              2      0.05177              0.05231             -0.14700         *
 * H:mu            1      0.00145             -0.12796              0.18189         *
 *                                                                                  *
 ************************************************************************************
  
 +------------+-------------+-------------+-----------------+ <-- min LBFGS
 |    Step    |   lambda    |   F.delta'  |    enthalpy     | <-- min LBFGS
 +------------+-------------+-------------+-----------------+ <-- min LBFGS
 |  previous  |    0.000000 |    0.034887 |     -342.145767 | <-- min LBFGS
 | trial step |    1.000000 |    0.020636 |     -342.150433 | <-- min LBFGS
 +------------+-------------+-------------+-----------------+ <-- min LBFGS
  

--------------------------------------------------------------------------------
 LBFGS: improving iteration        11 with line minimization (lambda=  2.448145)
--------------------------------------------------------------------------------
 
                           -------------------------------
                                     Cell Contents
                           -------------------------------
 
            xxxxxxxxxxxxxxxxxxxxxxxxxxxxxxxxxxxxxxxxxxxxxxxxxxxxxxxxxxxxxxxxx
            x  Element         Atom        Fractional coordinates of atoms  x
            x                 Number           u          v          w      x
            x---------------------------------------------------------------x
            x  Si                1         0.127365  -0.003301  -0.060595   x
            x  Si                2         0.237770   0.292116   0.238063   x
            x  H:mu              1         0.685855   0.286627   1.066569   x
            xxxxxxxxxxxxxxxxxxxxxxxxxxxxxxxxxxxxxxxxxxxxxxxxxxxxxxxxxxxxxxxxx
 
 
------------------------------------------------------------------------ <-- SCF
SCF loop      Energy                           Energy gain       Timer   <-- SCF
                                               per atom          (sec)   <-- SCF
------------------------------------------------------------------------ <-- SCF
Initial  -3.41962884E+002                                          8.09  <-- SCF
      1  -3.42154280E+002                    6.37986689E-002       8.10  <-- SCF
      2  -3.42154738E+002                    1.52741165E-004       8.11  <-- SCF
      3  -3.42152633E+002                   -7.01688146E-004       8.11  <-- SCF
      4  -3.42152571E+002                   -2.05304312E-005       8.12  <-- SCF
      5  -3.42152568E+002                   -9.38078086E-007       8.13  <-- SCF
      6  -3.42152569E+002                    4.20239156E-008       8.14  <-- SCF
      7  -3.42152569E+002                   -1.25952064E-009       8.14  <-- SCF
      8  -3.42152569E+002                    1.54029493E-009       8.15  <-- SCF
------------------------------------------------------------------------ <-- SCF
 
Final energy =  -342.1525685102     eV
(energy not corrected for finite basis set)
 
 
 ************************************** Forces **************************************
 *                                                                                  *
 *                           Cartesian components (eV/A)                            *
 * -------------------------------------------------------------------------------- *
 *                         x                    y                    z              *
 *                                                                                  *
 * Si              1     -0.03976              0.13707              0.08825         *
 * Si              2      0.15806             -0.01807             -0.17764         *
 * H:mu            1     -0.11829             -0.11899              0.08939         *
 *                                                                                  *
 ************************************************************************************
  
 +------------+-------------+-------------+-----------------+ <-- min LBFGS
 |    Step    |   lambda    |   F.delta'  |    enthalpy     | <-- min LBFGS
 +------------+-------------+-------------+-----------------+ <-- min LBFGS
 |  previous  |    0.000000 |    0.034887 |     -342.145767 | <-- min LBFGS
 | trial step |    1.000000 |    0.020636 |     -342.150433 | <-- min LBFGS
 |  line step |    2.448145 |   -0.003835 |     -342.152569 | <-- min LBFGS
 +------------+-------------+-------------+-----------------+ <-- min LBFGS
  
 LBFGS: finished iteration    11 with enthalpy= -3.42152569E+002 eV
  
 +-----------+-----------------+-----------------+------------+-----+ <-- LBFGS
 | Parameter |      value      |    tolerance    |    units   | OK? | <-- LBFGS
 +-----------+-----------------+-----------------+------------+-----+ <-- LBFGS
 |  dE/ion   |   2.267014E-003 |   2.000000E-005 |         eV | No  | <-- LBFGS
 |  |F|max   |   2.384618E-001 |   5.000000E-002 |       eV/A | No  | <-- LBFGS
 |  |dR|max  |   4.329013E-002 |   1.000000E-003 |          A | No  | <-- LBFGS
 +-----------+-----------------+-----------------+------------+-----+ <-- LBFGS
  

================================================================================
 Starting LBFGS iteration         12 ...
================================================================================
  
 +------------+-------------+-------------+-----------------+ <-- min LBFGS
 |    Step    |   lambda    |   F.delta'  |    enthalpy     | <-- min LBFGS
 +------------+-------------+-------------+-----------------+ <-- min LBFGS
 |  previous  |    0.000000 |    0.033354 |     -342.152569 | <-- min LBFGS
 +------------+-------------+-------------+-----------------+ <-- min LBFGS
  

--------------------------------------------------------------------------------
 LBFGS: starting iteration        12 with trial guess (lambda=  1.000000)
--------------------------------------------------------------------------------
 
                           -------------------------------
                                     Cell Contents
                           -------------------------------
 
            xxxxxxxxxxxxxxxxxxxxxxxxxxxxxxxxxxxxxxxxxxxxxxxxxxxxxxxxxxxxxxxxx
            x  Element         Atom        Fractional coordinates of atoms  x
            x                 Number           u          v          w      x
            x---------------------------------------------------------------x
            x  Si                1         0.127524  -0.003664  -0.059909   x
            x  Si                2         0.239860   0.291851   0.236543   x
            x  H:mu              1         0.683607   0.287255   1.067404   x
            xxxxxxxxxxxxxxxxxxxxxxxxxxxxxxxxxxxxxxxxxxxxxxxxxxxxxxxxxxxxxxxxx
 
 
------------------------------------------------------------------------ <-- SCF
SCF loop      Energy                           Energy gain       Timer   <-- SCF
                                               per atom          (sec)   <-- SCF
------------------------------------------------------------------------ <-- SCF
Initial  -3.42158792E+002                                          8.18  <-- SCF
      1  -3.42155313E+002                   -1.15981542E-003       8.19  <-- SCF
      2  -3.42155388E+002                    2.50677144E-005       8.19  <-- SCF
      3  -3.42154318E+002                   -3.56732464E-004       8.20  <-- SCF
      4  -3.42154200E+002                   -3.92232001E-005       8.21  <-- SCF
      5  -3.42154203E+002                    1.03334036E-006       8.21  <-- SCF
      6  -3.42154203E+002                   -1.72313319E-007       8.22  <-- SCF
      7  -3.42154203E+002                    1.10097646E-008       8.23  <-- SCF
      8  -3.42154203E+002                    3.98280241E-009       8.23  <-- SCF
      9  -3.42154203E+002                    2.79291947E-010       8.24  <-- SCF
------------------------------------------------------------------------ <-- SCF
 
Final energy =  -342.1542028650     eV
(energy not corrected for finite basis set)
 
 
 ************************************** Forces **************************************
 *                                                                                  *
 *                           Cartesian components (eV/A)                            *
 * -------------------------------------------------------------------------------- *
 *                         x                    y                    z              *
 *                                                                                  *
 * Si              1      0.02455              0.00645             -0.01513         *
 * Si              2     -0.02670              0.01385              0.01471         *
 * H:mu            1      0.00215             -0.02030              0.00042         *
 *                                                                                  *
 ************************************************************************************
  
 +------------+-------------+-------------+-----------------+ <-- min LBFGS
 |    Step    |   lambda    |   F.delta'  |    enthalpy     | <-- min LBFGS
 +------------+-------------+-------------+-----------------+ <-- min LBFGS
 |  previous  |    0.000000 |    0.033354 |     -342.152569 | <-- min LBFGS
 | trial step |    1.000000 |   -0.001233 |     -342.154203 | <-- min LBFGS
 +------------+-------------+-------------+-----------------+ <-- min LBFGS
  
 LBFGS: finished iteration    12 with enthalpy= -3.42154203E+002 eV
  
 +-----------+-----------------+-----------------+------------+-----+ <-- LBFGS
 | Parameter |      value      |    tolerance    |    units   | OK? | <-- LBFGS
 +-----------+-----------------+-----------------+------------+-----+ <-- LBFGS
 |  dE/ion   |   5.447849E-004 |   2.000000E-005 |         eV | No  | <-- LBFGS
 |  |F|max   |   3.348795E-002 |   5.000000E-002 |       eV/A | Yes | <-- LBFGS
 |  |dR|max  |   7.050643E-003 |   1.000000E-003 |          A | No  | <-- LBFGS
 +-----------+-----------------+-----------------+------------+-----+ <-- LBFGS
  

================================================================================
 Starting LBFGS iteration         13 ...
================================================================================
  
 +------------+-------------+-------------+-----------------+ <-- min LBFGS
 |    Step    |   lambda    |   F.delta'  |    enthalpy     | <-- min LBFGS
 +------------+-------------+-------------+-----------------+ <-- min LBFGS
 |  previous  |    0.000000 |    0.004144 |     -342.154203 | <-- min LBFGS
 +------------+-------------+-------------+-----------------+ <-- min LBFGS
  

--------------------------------------------------------------------------------
 LBFGS: starting iteration        13 with trial guess (lambda=  1.000000)
--------------------------------------------------------------------------------
 
                           -------------------------------
                                     Cell Contents
                           -------------------------------
 
            xxxxxxxxxxxxxxxxxxxxxxxxxxxxxxxxxxxxxxxxxxxxxxxxxxxxxxxxxxxxxxxxx
            x  Element         Atom        Fractional coordinates of atoms  x
            x                 Number           u          v          w      x
            x---------------------------------------------------------------x
            x  Si                1         0.127720  -0.003647  -0.060067   x
            x  Si                2         0.239752   0.291828   0.236653   x
            x  H:mu              1         0.683519   0.287262   1.067451   x
            xxxxxxxxxxxxxxxxxxxxxxxxxxxxxxxxxxxxxxxxxxxxxxxxxxxxxxxxxxxxxxxxx
 
 
------------------------------------------------------------------------ <-- SCF
SCF loop      Energy                           Energy gain       Timer   <-- SCF
                                               per atom          (sec)   <-- SCF
------------------------------------------------------------------------ <-- SCF
Initial  -3.42153939E+002                                          8.27  <-- SCF
      1  -3.42154223E+002                    9.46839956E-005       8.28  <-- SCF
      2  -3.42154224E+002                    7.22900011E-008       8.29  <-- SCF
      3  -3.42154222E+002                   -4.15024949E-007       8.29  <-- SCF
      4  -3.42154222E+002                   -3.17468613E-008       8.30  <-- SCF
      5  -3.42154222E+002                    3.36223420E-009       8.30  <-- SCF
      6  -3.42154222E+002                    4.69820807E-010       8.31  <-- SCF
------------------------------------------------------------------------ <-- SCF
 
Final energy =  -342.1542222002     eV
(energy not corrected for finite basis set)
 
 
 ************************************** Forces **************************************
 *                                                                                  *
 *                           Cartesian components (eV/A)                            *
 * -------------------------------------------------------------------------------- *
 *                         x                    y                    z              *
 *                                                                                  *
 * Si              1      0.00005              0.00904              0.00097         *
 * Si              2     -0.00413              0.00649              0.00521         *
 * H:mu            1      0.00408             -0.01553             -0.00618         *
 *                                                                                  *
 ************************************************************************************
  
 +------------+-------------+-------------+-----------------+ <-- min LBFGS
 |    Step    |   lambda    |   F.delta'  |    enthalpy     | <-- min LBFGS
 +------------+-------------+-------------+-----------------+ <-- min LBFGS
 |  previous  |    0.000000 |    0.004144 |     -342.154203 | <-- min LBFGS
 | trial step |    1.000000 |    0.000381 |     -342.154222 | <-- min LBFGS
 +------------+-------------+-------------+-----------------+ <-- min LBFGS
  
 LBFGS: finished iteration    13 with enthalpy= -3.42154222E+002 eV
  
 +-----------+-----------------+-----------------+------------+-----+ <-- LBFGS
 | Parameter |      value      |    tolerance    |    units   | OK? | <-- LBFGS
 +-----------+-----------------+-----------------+------------+-----+ <-- LBFGS
 |  dE/ion   |   6.445070E-006 |   2.000000E-005 |         eV | Yes | <-- LBFGS
 |  |F|max   |   1.720921E-002 |   5.000000E-002 |       eV/A | Yes | <-- LBFGS
 |  |dR|max  |   6.969646E-004 |   1.000000E-003 |          A | Yes | <-- LBFGS
 +-----------+-----------------+-----------------+------------+-----+ <-- LBFGS
  
 LBFGS: Geometry optimization completed successfully.

================================================================================
 LBFGS: Final Configuration:
================================================================================
 
                           -------------------------------
                                     Cell Contents
                           -------------------------------
 
            xxxxxxxxxxxxxxxxxxxxxxxxxxxxxxxxxxxxxxxxxxxxxxxxxxxxxxxxxxxxxxxxx
            x  Element         Atom        Fractional coordinates of atoms  x
            x                 Number           u          v          w      x
            x---------------------------------------------------------------x
            x  Si                1         0.127720  -0.003647  -0.060067   x
            x  Si                2         0.239752   0.291828   0.236653   x
            x  H:mu              1         0.683519   0.287262   1.067451   x
            xxxxxxxxxxxxxxxxxxxxxxxxxxxxxxxxxxxxxxxxxxxxxxxxxxxxxxxxxxxxxxxxx
 
 
 LBFGS: Final Enthalpy     = -3.42154222E+002 eV
 LBFGS: Final <frequency>  =    1037.70140 cm-1
 
 ************************************** Forces **************************************
 *                                                                                  *
 *                           Cartesian components (eV/A)                            *
 * -------------------------------------------------------------------------------- *
 *                         x                    y                    z              *
 *                                                                                  *
 * Si              1      0.00005              0.00904              0.00097         *
 * Si              2     -0.00413              0.00649              0.00521         *
 * H:mu            1      0.00408             -0.01553             -0.00618         *
 *                                                                                  *
 ************************************************************************************
 
 Pseudo atomic calculation performed for Si 3s2 3p2
 
 Converged in 21 iterations to a total energy of -162.9266 eV
 
 Pseudo atomic calculation performed for H:mu 1s1
 
 Converged in 18 iterations to a total energy of -11.6786 eV
Charge spilling parameter for spin component 1 = 2.32%
 
            Orbital Populations       
     Ion    Atom   Orbital             Charge
  -------------------------------------------
     Si     1      S                    0.981
     Si     1      Px                   0.668
     Si     1      Py                   0.845
     Si     1      Pz                   0.905
     Si     2      S                    0.982
     Si     2      Px                   0.909
     Si     2      Py                   0.805
     Si     2      Pz                   0.691
   H:mu     1      S                    1.214
  -------------------------------------------
                           Total:       8.000
  -------------------------------------------
 
     Atomic Populations (Mulliken)
     -----------------------------
Species          Ion     s      p      d      f     Total  Charge (e)
=====================================================================
  Si              1     0.98   2.42   0.00   0.00   3.40     0.60
  Si              2     0.98   2.41   0.00   0.00   3.39     0.61
  H:mu            1     1.21   0.00   0.00   0.00   1.21    -0.21
=====================================================================
 
                 Bond                   Population      Length (A)
======================================================================
              Si 2 -- H:mu 1                -1.74        1.47262
              Si 1 -- H:mu 1                -1.76        1.47358
              Si 1 -- Si 2                   2.84        2.22590
======================================================================
 

Writing analysis data to ./castep-pymuonsuite-test-data/muon-airss-out-castep/castep/Si2_22/Si2_22.castep_bin

Writing model to ./castep-pymuonsuite-test-data/muon-airss-out-castep/castep/Si2_22/Si2_22.check
 
 A BibTeX formatted list of references used in this run has been written to 
 ./castep-pymuonsuite-test-data/muon-airss-out-castep/castep/Si2_22/Si2_22.bib
 
Initialisation time =      5.29 s
Calculation time    =      3.29 s
Finalisation time   =      0.13 s
Total time          =      8.70 s
Peak Memory Use     = 814164 kB
  
Overall parallel efficiency rating: Terrible (33%)                              
  
Data was distributed by:-
G-vector (8-way); efficiency rating: Terrible (33%)                             
  
Parallel notes:
1) Calculation only took 8.6 s, so efficiency estimates may be inaccurate.      
