 Entering Gaussian System, Link 0=g16
 Initial command:
 /apps/gaussian/G16RevB.01/pgi/17.5/g16/l1.exe "/scratch/Gau-30060.inp" -scrdir="/scratch/"
 Entering Link 1 = /apps/gaussian/G16RevB.01/pgi/17.5/g16/l1.exe PID=     30061.
  
 Copyright (c) 1988-2017, Gaussian, Inc.  All Rights Reserved.
  
 This is part of the Gaussian(R) 16 program.  It is based on
 the Gaussian(R) 09 system (copyright 2009, Gaussian, Inc.),
 the Gaussian(R) 03 system (copyright 2003, Gaussian, Inc.),
 the Gaussian(R) 98 system (copyright 1998, Gaussian, Inc.),
 the Gaussian(R) 94 system (copyright 1995, Gaussian, Inc.),
 the Gaussian 92(TM) system (copyright 1992, Gaussian, Inc.),
 the Gaussian 90(TM) system (copyright 1990, Gaussian, Inc.),
 the Gaussian 88(TM) system (copyright 1988, Gaussian, Inc.),
 the Gaussian 86(TM) system (copyright 1986, Carnegie Mellon
 University), and the Gaussian 82(TM) system (copyright 1983,
 Carnegie Mellon University). Gaussian is a federally registered
 trademark of Gaussian, Inc.
  
 This software contains proprietary and confidential information,
 including trade secrets, belonging to Gaussian, Inc.
  
 This software is provided under written license and may be
 used, copied, transmitted, or stored only in accord with that
 written license.
  
 The following legend is applicable only to US Government
 contracts under FAR:
  
                    RESTRICTED RIGHTS LEGEND
  
 Use, reproduction and disclosure by the US Government is
 subject to restrictions as set forth in subparagraphs (a)
 and (c) of the Commercial Computer Software - Restricted
 Rights clause in FAR 52.227-19.
  
 Gaussian, Inc.
 340 Quinnipiac St., Bldg. 40, Wallingford CT 06492
  
  
 ---------------------------------------------------------------
 Warning -- This program may not be used in any manner that
 competes with the business of Gaussian, Inc. or will provide
 assistance to any competitor of Gaussian, Inc.  The licensee
 of this program is prohibited from giving any competitor of
 Gaussian, Inc. access to this program.  By using this program,
 the user acknowledges that Gaussian, Inc. is engaged in the
 business of creating and licensing software in the field of
 computational chemistry and represents and warrants to the
 licensee that it is not a competitor of Gaussian, Inc. and that
 it will not use this program in any manner prohibited above.
 ---------------------------------------------------------------
  

 Cite this work as:
 Gaussian 16, Revision B.01,
 M. J. Frisch, G. W. Trucks, H. B. Schlegel, G. E. Scuseria, 
 M. A. Robb, J. R. Cheeseman, G. Scalmani, V. Barone, 
 G. A. Petersson, H. Nakatsuji, X. Li, M. Caricato, A. V. Marenich, 
 J. Bloino, B. G. Janesko, R. Gomperts, B. Mennucci, H. P. Hratchian, 
 J. V. Ortiz, A. F. Izmaylov, J. L. Sonnenberg, D. Williams-Young, 
 F. Ding, F. Lipparini, F. Egidi, J. Goings, B. Peng, A. Petrone, 
 T. Henderson, D. Ranasinghe, V. G. Zakrzewski, J. Gao, N. Rega, 
 G. Zheng, W. Liang, M. Hada, M. Ehara, K. Toyota, R. Fukuda, 
 J. Hasegawa, M. Ishida, T. Nakajima, Y. Honda, O. Kitao, H. Nakai, 
 T. Vreven, K. Throssell, J. A. Montgomery, Jr., J. E. Peralta, 
 F. Ogliaro, M. J. Bearpark, J. J. Heyd, E. N. Brothers, K. N. Kudin, 
 V. N. Staroverov, T. A. Keith, R. Kobayashi, J. Normand, 
 K. Raghavachari, A. P. Rendell, J. C. Burant, S. S. Iyengar, 
 J. Tomasi, M. Cossi, J. M. Millam, M. Klene, C. Adamo, R. Cammi, 
 J. W. Ochterski, R. L. Martin, K. Morokuma, O. Farkas, 
 J. B. Foresman, and D. J. Fox, Gaussian, Inc., Wallingford CT, 2016.
 
 ******************************************
 Gaussian 16:  ES64L-G16RevB.01 20-Dec-2017
                14-Mar-2021 
 ******************************************
 %nprocshared=16
 Will use up to   16 processors via shared memory.
 ---------------------------------------
 #N B3LYP/EPR-III opt(Tight, MaxCyc=100)
 ---------------------------------------
 1/6=100,7=10,18=20,19=15,26=3,38=1/1,3;
 2/9=110,12=2,17=6,18=5,40=1/2;
 3/5=22,11=2,25=1,30=1,71=1,74=-5/1,2,3;
 4//1;
 5/5=2,38=5/2;
 6/7=2,8=2,9=2,10=2,28=1/1;
 7//1,2,3,16;
 1/6=100,7=10,18=20,19=15,26=3/3(2);
 2/9=110/2;
 99//99;
 2/9=110/2;
 3/5=22,11=2,25=1,30=1,71=1,74=-5/1,2,3;
 4/5=5,16=3,69=1/1;
 5/5=2,38=5/2;
 7//1,2,3,16;
 1/6=100,7=10,18=20,19=15,26=3/3(-5);
 2/9=110/2;
 6/7=2,8=2,9=2,10=2,19=2,28=1/1;
 99/9=1/99;
 ------------------------------
 Gaussian input prepared by ASE
 ------------------------------
 Symbolic Z-matrix:
 Charge =  0 Multiplicity = 2
 C                     0.        0.        0.66748 
 C                     0.        0.       -0.66748 
 H                     0.        0.92283   1.2377 
 H                     0.       -0.92283   1.2377 
 H                     0.        0.92283  -1.2377 
 H                     0.       -0.92283  -1.2377 
 H(iso=0.1134289259)   1.        0.        0.66748 
 

 GradGradGradGradGradGradGradGradGradGradGradGradGradGradGradGradGradGrad
 Berny optimization.
 Initialization pass.
                           ----------------------------
                           !    Initial Parameters    !
                           ! (Angstroms and Degrees)  !
 --------------------------                            --------------------------
 ! Name  Definition              Value          Derivative Info.                !
 --------------------------------------------------------------------------------
 ! R1    R(1,2)                  1.335          estimate D2E/DX2                !
 ! R2    R(1,3)                  1.0848         estimate D2E/DX2                !
 ! R3    R(1,4)                  1.0848         estimate D2E/DX2                !
 ! R4    R(1,7)                  1.0            estimate D2E/DX2                !
 ! R5    R(2,5)                  1.0848         estimate D2E/DX2                !
 ! R6    R(2,6)                  1.0848         estimate D2E/DX2                !
 ! A1    A(2,1,3)              121.7118         estimate D2E/DX2                !
 ! A2    A(2,1,4)              121.7118         estimate D2E/DX2                !
 ! A3    A(2,1,7)               90.0            estimate D2E/DX2                !
 ! A4    A(3,1,4)              116.5764         estimate D2E/DX2                !
 ! A5    A(3,1,7)               90.0            estimate D2E/DX2                !
 ! A6    A(4,1,7)               90.0            estimate D2E/DX2                !
 ! A7    A(1,2,5)              121.7118         estimate D2E/DX2                !
 ! A8    A(1,2,6)              121.7118         estimate D2E/DX2                !
 ! A9    A(5,2,6)              116.5764         estimate D2E/DX2                !
 ! D1    D(3,1,2,5)              0.0            estimate D2E/DX2                !
 ! D2    D(3,1,2,6)            180.0            estimate D2E/DX2                !
 ! D3    D(4,1,2,5)            180.0            estimate D2E/DX2                !
 ! D4    D(4,1,2,6)              0.0            estimate D2E/DX2                !
 ! D5    D(7,1,2,5)            -90.0            estimate D2E/DX2                !
 ! D6    D(7,1,2,6)             90.0            estimate D2E/DX2                !
 --------------------------------------------------------------------------------
 Trust Radius=3.00D-01 FncErr=1.00D-07 GrdErr=1.00D-06 EigMax=2.50D+02 EigMin=1.00D-04
 Number of steps in this run=    100 maximum allowed number of steps=    100.
 GradGradGradGradGradGradGradGradGradGradGradGradGradGradGradGradGradGrad

                          Input orientation:                          
 ---------------------------------------------------------------------
 Center     Atomic      Atomic             Coordinates (Angstroms)
 Number     Number       Type             X           Y           Z
 ---------------------------------------------------------------------
      1          6           0        0.000000    0.000000    0.667480
      2          6           0        0.000000    0.000000   -0.667480
      3          1           0        0.000000    0.922832    1.237695
      4          1           0        0.000000   -0.922832    1.237695
      5          1           0        0.000000    0.922832   -1.237695
      6          1           0        0.000000   -0.922832   -1.237695
      7          1           0        1.000000    0.000000    0.667480
 ---------------------------------------------------------------------
                    Distance matrix (angstroms):
                    1          2          3          4          5
     1  C    0.000000
     2  C    1.334960   0.000000
     3  H    1.084788   2.116911   0.000000
     4  H    1.084788   2.116911   1.845664   0.000000
     5  H    2.116911   1.084788   2.475390   3.087723   0.000000
     6  H    2.116911   1.084788   3.087723   2.475390   1.845664
     7  H    1.000000   1.667968   1.475386   1.475386   2.341220
                    6          7
     6  H    0.000000
     7  H    2.341220   0.000000
 Stoichiometry    C2H5(2)
 Framework group  CS[SG(C2H),X(H4)]
 Deg. of freedom     9
 Full point group                 CS      NOp   2
 Largest Abelian subgroup         CS      NOp   2
 Largest concise Abelian subgroup CS      NOp   2
                         Standard orientation:                         
 ---------------------------------------------------------------------
 Center     Atomic      Atomic             Coordinates (Angstroms)
 Number     Number       Type             X           Y           Z
 ---------------------------------------------------------------------
      1          6           0       -0.058824   -0.628216    0.000000
      2          6           0       -0.058824    0.706744   -0.000000
      3          1           0       -0.058824   -1.198431    0.922832
      4          1           0       -0.058824   -1.198431   -0.922832
      5          1           0       -0.058824    1.276959    0.922832
      6          1           0       -0.058824    1.276959   -0.922832
      7          1           0        0.941176   -0.628216   -0.000000
 ---------------------------------------------------------------------
 Rotational constants (GHZ):         142.5303233          29.6731643          24.8318903
 Standard basis: EPR-III (5D, 7F)
 There are    95 symmetry adapted cartesian basis functions of A'  symmetry.
 There are    50 symmetry adapted cartesian basis functions of A"  symmetry.
 There are    87 symmetry adapted basis functions of A'  symmetry.
 There are    48 symmetry adapted basis functions of A"  symmetry.
   135 basis functions,   181 primitive gaussians,   145 cartesian basis functions
     9 alpha electrons        8 beta electrons
       nuclear repulsion energy        39.5691455543 Hartrees.
 NAtoms=    7 NActive=    7 NUniq=    5 SFac= 1.96D+00 NAtFMM=   60 NAOKFM=F Big=F
 Integral buffers will be    131072 words long.
 Raffenetti 2 integral format.
 Two-electron integral symmetry is turned on.
 One-electron integrals computed using PRISM.
 PrsmSu:  requested number of processors reduced to:  13 ShMem   1 Linda.
 NBasis=   135 RedAO= T EigKep=  3.62D-05  NBF=    87    48
 NBsUse=   135 1.00D-06 EigRej= -1.00D+00 NBFU=    87    48
 ExpMin= 3.26D-02 ExpMax= 1.64D+04 ExpMxC= 2.43D+03 IAcc=3 IRadAn=         5 AccDes= 0.00D+00
 Harris functional with IExCor=  402 and IRadAn=       5 diagonalized for initial guess.
 HarFok:  IExCor=  402 AccDes= 0.00D+00 IRadAn=         5 IDoV= 1 UseB2=F ITyADJ=14
 ICtDFT=  3500011 ScaDFX=  1.000000  1.000000  1.000000  1.000000
 FoFCou: FMM=F IPFlag=           0 FMFlag=      100000 FMFlg1=           0
         NFxFlg=           0 DoJE=T BraDBF=F KetDBF=T FulRan=T
         wScrn=  0.000000 ICntrl=       500 IOpCl=  0 I1Cent=   200000004 NGrid=           0
         NMat0=    1 NMatS0=      1 NMatT0=    0 NMatD0=    1 NMtDS0=    0 NMtDT0=    0
 Petite list used in FoFCou.
 Initial guess orbital symmetries:
 Alpha Orbitals:
       Occupied  (A') (A') (A') (A') (A") (A') (A') (A") (A')
       Virtual   (A') (A") (A') (A') (A') (A') (A") (A") (A') (A')
                 (A') (A') (A") (A') (A') (A") (A') (A') (A') (A")
                 (A') (A') (A") (A') (A") (A') (A') (A") (A") (A')
                 (A') (A") (A') (A') (A") (A") (A') (A') (A") (A')
                 (A') (A") (A") (A') (A') (A') (A') (A') (A") (A')
                 (A') (A") (A") (A") (A') (A') (A') (A') (A") (A')
                 (A") (A') (A') (A") (A') (A') (A") (A") (A') (A")
                 (A') (A") (A') (A') (A") (A') (A') (A") (A") (A')
                 (A") (A') (A') (A") (A") (A') (A') (A') (A") (A')
                 (A") (A') (A') (A') (A') (A") (A') (A") (A') (A")
                 (A') (A") (A') (A') (A') (A") (A") (A") (A') (A')
                 (A') (A') (A") (A") (A') (A') (A') (A') (A') (A")
                 (A') (A') (A") (A') (A') (A')
 Beta  Orbitals:
       Occupied  (A') (A') (A') (A') (A") (A') (A') (A")
       Virtual   (A') (A') (A") (A') (A') (A') (A') (A") (A") (A')
                 (A') (A') (A') (A") (A') (A') (A") (A') (A') (A')
                 (A") (A') (A') (A") (A') (A") (A') (A') (A") (A")
                 (A') (A') (A") (A') (A') (A") (A") (A') (A') (A")
                 (A') (A') (A") (A") (A') (A') (A') (A') (A') (A")
                 (A') (A') (A") (A") (A") (A') (A') (A') (A') (A")
                 (A') (A") (A') (A') (A") (A') (A') (A") (A") (A')
                 (A") (A') (A") (A') (A') (A") (A') (A') (A") (A")
                 (A') (A") (A') (A') (A") (A") (A') (A') (A') (A")
                 (A') (A") (A') (A') (A') (A') (A") (A') (A") (A')
                 (A") (A') (A") (A') (A') (A') (A") (A") (A") (A')
                 (A') (A') (A') (A") (A") (A') (A') (A') (A') (A')
                 (A") (A') (A') (A") (A') (A') (A')
 The electronic state of the initial guess is 2-A'.
 Initial guess <Sx>= 0.0000 <Sy>= 0.0000 <Sz>= 0.5000 <S**2>= 0.7500 S= 0.5000
 Keep R1 and R2 ints in memory in symmetry-blocked form, NReq=63753385.
 Requested convergence on RMS density matrix=1.00D-08 within 128 cycles.
 Requested convergence on MAX density matrix=1.00D-06.
 Requested convergence on             energy=1.00D-06.
 No special actions if energy rises.
 SCF Done:  E(UB3LYP) =  -79.1338321177     A.U. after   12 cycles
            NFock= 12  Conv=0.32D-08     -V/T= 1.9988
 <Sx>= 0.0000 <Sy>= 0.0000 <Sz>= 0.5000 <S**2>= 0.7537 S= 0.5019
 <L.S>= 0.000000000000E+00
 Annihilation of the first spin contaminant:
 S**2 before annihilation     0.7537,   after     0.7500

 **********************************************************************

            Population analysis using the SCF Density.

 **********************************************************************

 Orbital symmetries:
 Alpha Orbitals:
       Occupied  (A') (A') (A') (A') (A") (A') (A') (A") (A')
       Virtual   (A') (A') (A") (A') (A") (A') (A') (A') (A') (A")
                 (A') (A') (A") (A') (A') (A') (A") (A') (A") (A')
                 (A') (A') (A") (A') (A") (A') (A") (A') (A") (A')
                 (A') (A") (A') (A') (A") (A") (A') (A') (A") (A')
                 (A") (A') (A") (A') (A') (A') (A') (A') (A") (A')
                 (A") (A') (A") (A") (A') (A') (A') (A') (A") (A')
                 (A") (A') (A') (A") (A') (A') (A") (A') (A") (A")
                 (A') (A") (A') (A') (A") (A') (A") (A') (A") (A')
                 (A") (A') (A') (A") (A") (A') (A') (A') (A") (A')
                 (A") (A') (A') (A') (A') (A") (A') (A") (A") (A')
                 (A') (A") (A') (A') (A') (A") (A") (A") (A') (A')
                 (A') (A') (A") (A") (A') (A') (A') (A') (A') (A')
                 (A") (A') (A") (A') (A') (A')
 Beta  Orbitals:
       Occupied  (A') (A') (A') (A') (A") (A') (A') (A")
       Virtual   (A') (A') (A') (A") (A') (A") (A') (A') (A') (A')
                 (A") (A') (A') (A") (A') (A') (A') (A") (A') (A")
                 (A') (A') (A') (A") (A') (A") (A') (A") (A') (A")
                 (A') (A') (A") (A') (A') (A") (A") (A') (A') (A")
                 (A') (A") (A') (A") (A') (A') (A') (A') (A') (A")
                 (A') (A") (A') (A") (A") (A') (A') (A') (A') (A")
                 (A') (A") (A') (A') (A") (A') (A') (A") (A") (A')
                 (A") (A') (A") (A') (A') (A") (A') (A") (A') (A")
                 (A') (A") (A') (A") (A') (A") (A') (A') (A') (A")
                 (A') (A") (A') (A') (A') (A') (A") (A') (A") (A")
                 (A') (A') (A") (A') (A') (A') (A") (A") (A") (A')
                 (A') (A') (A') (A") (A") (A') (A') (A') (A') (A')
                 (A") (A') (A') (A") (A') (A') (A')
 The electronic state is 2-A'.
 Alpha  occ. eigenvalues --  -10.16211 -10.15528  -0.81994  -0.61537  -0.47917
 Alpha  occ. eigenvalues --   -0.43218  -0.41453  -0.36134  -0.16424
 Alpha virt. eigenvalues --   -0.00463   0.01801   0.02408   0.03448   0.05427
 Alpha virt. eigenvalues --    0.05927   0.06443   0.07463   0.10866   0.10985
 Alpha virt. eigenvalues --    0.11383   0.11732   0.16206   0.19866   0.21444
 Alpha virt. eigenvalues --    0.23519   0.24062   0.26891   0.29332   0.29531
 Alpha virt. eigenvalues --    0.30535   0.36480   0.38555   0.39516   0.44943
 Alpha virt. eigenvalues --    0.45918   0.48335   0.52439   0.61351   0.64112
 Alpha virt. eigenvalues --    0.69730   0.70932   0.77144   0.81479   0.86355
 Alpha virt. eigenvalues --    0.87420   0.89308   0.91544   0.94697   0.95346
 Alpha virt. eigenvalues --    0.98918   1.00903   1.03832   1.03919   1.05657
 Alpha virt. eigenvalues --    1.14982   1.16622   1.21718   1.24073   1.26190
 Alpha virt. eigenvalues --    1.38088   1.39257   1.39822   1.43692   1.46081
 Alpha virt. eigenvalues --    1.56613   1.63758   1.67672   1.70826   1.84270
 Alpha virt. eigenvalues --    1.87262   1.92454   1.94026   2.02525   2.20283
 Alpha virt. eigenvalues --    2.48992   2.70912   2.77409   2.77504   2.88812
 Alpha virt. eigenvalues --    2.90090   2.94205   2.98995   3.03513   3.06516
 Alpha virt. eigenvalues --    3.14823   3.19342   3.19655   3.26570   3.30385
 Alpha virt. eigenvalues --    3.37194   3.40376   3.52461   3.52661   3.57995
 Alpha virt. eigenvalues --    3.64961   3.74413   3.81213   3.91734   3.95234
 Alpha virt. eigenvalues --    3.96685   4.00753   4.12106   4.18046   4.21189
 Alpha virt. eigenvalues --    4.24736   4.25694   4.26235   4.44465   4.45531
 Alpha virt. eigenvalues --    4.49794   4.70743   4.86210   5.08301   5.35394
 Alpha virt. eigenvalues --    5.38469   5.42789   5.58544   5.76361   5.87966
 Alpha virt. eigenvalues --    5.98677   6.14031   6.14846   6.37283   6.62684
 Alpha virt. eigenvalues --    7.80389   8.65864  29.20075  29.77922  37.26151
 Alpha virt. eigenvalues --   37.27120  37.42962  37.46360  37.51469 133.65782
 Alpha virt. eigenvalues --  134.30131
  Beta  occ. eigenvalues --  -10.15512 -10.14892  -0.80376  -0.59000  -0.47404
  Beta  occ. eigenvalues --   -0.42389  -0.39007  -0.35594
  Beta virt. eigenvalues --   -0.03217  -0.00384   0.01953   0.02376   0.03696
  Beta virt. eigenvalues --    0.05389   0.05945   0.06582   0.08388   0.10965
  Beta virt. eigenvalues --    0.10988   0.11498   0.12110   0.16250   0.20153
  Beta virt. eigenvalues --    0.21656   0.23735   0.24050   0.27598   0.29405
  Beta virt. eigenvalues --    0.31184   0.33023   0.37468   0.38822   0.39913
  Beta virt. eigenvalues --    0.45919   0.46086   0.48685   0.53520   0.63072
  Beta virt. eigenvalues --    0.65831   0.70236   0.70930   0.78065   0.82278
  Beta virt. eigenvalues --    0.86509   0.87473   0.89943   0.92543   0.95026
  Beta virt. eigenvalues --    0.96626   0.99324   1.01785   1.04282   1.06559
  Beta virt. eigenvalues --    1.07239   1.17492   1.18634   1.22449   1.24933
  Beta virt. eigenvalues --    1.27912   1.39531   1.40042   1.40168   1.44305
  Beta virt. eigenvalues --    1.46847   1.57159   1.64732   1.67839   1.71089
  Beta virt. eigenvalues --    1.85638   1.87910   1.93111   1.94848   2.03224
  Beta virt. eigenvalues --    2.21067   2.50633   2.72696   2.77791   2.80154
  Beta virt. eigenvalues --    2.90508   2.91112   2.96504   3.02281   3.06566
  Beta virt. eigenvalues --    3.06864   3.18221   3.20562   3.20622   3.27591
  Beta virt. eigenvalues --    3.31593   3.40660   3.43205   3.54383   3.55063
  Beta virt. eigenvalues --    3.58072   3.67046   3.79672   3.81563   3.92166
  Beta virt. eigenvalues --    3.96298   3.97474   4.00956   4.13193   4.19589
  Beta virt. eigenvalues --    4.22087   4.25056   4.26083   4.27823   4.45572
  Beta virt. eigenvalues --    4.46916   4.50299   4.70895   4.88281   5.09211
  Beta virt. eigenvalues --    5.37071   5.38580   5.42900   5.58664   5.76563
  Beta virt. eigenvalues --    5.88440   6.00387   6.15098   6.15147   6.37542
  Beta virt. eigenvalues --    6.63225   7.82333   8.67191  29.21581  29.78880
  Beta virt. eigenvalues --   37.26101  37.26108  37.46247  37.46694  37.51714
  Beta virt. eigenvalues --  133.66218 134.30394
          Condensed to atoms (all electrons):
               1          2          3          4          5          6
     1  C    4.853983   0.149444   0.376239   0.376239  -0.036921  -0.036921
     2  C    0.149444   5.627578   0.019612   0.019612   0.418049   0.418049
     3  H    0.376239   0.019612   0.600076  -0.017839  -0.018449   0.012679
     4  H    0.376239   0.019612  -0.017839   0.600076   0.012679  -0.018449
     5  H   -0.036921   0.418049  -0.018449   0.012679   0.541255  -0.041918
     6  H   -0.036921   0.418049   0.012679  -0.018449  -0.041918   0.541255
     7  H    0.496902  -0.256198  -0.075471  -0.075471   0.003379   0.003379
               7
     1  C    0.496902
     2  C   -0.256198
     3  H   -0.075471
     4  H   -0.075471
     5  H    0.003379
     6  H    0.003379
     7  H    0.778524
          Atomic-Atomic Spin Densities.
               1          2          3          4          5          6
     1  C    0.105795  -0.267731  -0.036147  -0.036147  -0.002174  -0.002174
     2  C   -0.267731   1.443251   0.052933   0.052933   0.006959   0.006959
     3  H   -0.036147   0.052933   0.041355   0.023964   0.002218  -0.003216
     4  H   -0.036147   0.052933   0.023964   0.041355  -0.003216   0.002218
     5  H   -0.002174   0.006959   0.002218  -0.003216  -0.053890   0.008453
     6  H   -0.002174   0.006959  -0.003216   0.002218   0.008453  -0.053890
     7  H    0.195822  -0.284774  -0.062073  -0.062073   0.003492   0.003492
               7
     1  C    0.195822
     2  C   -0.284774
     3  H   -0.062073
     4  H   -0.062073
     5  H    0.003492
     6  H    0.003492
     7  H    0.276589
 Mulliken charges and spin densities:
               1          2
     1  C   -0.178965  -0.042756
     2  C   -0.396147   1.010531
     3  H    0.103152   0.019034
     4  H    0.103152   0.019034
     5  H    0.121926  -0.038159
     6  H    0.121926  -0.038159
     7  H    0.124956   0.070474
 Sum of Mulliken charges =  -0.00000   1.00000
 Mulliken charges and spin densities with hydrogens summed into heavy atoms:
               1          2
     1  C    0.152296   0.065786
     2  C   -0.152296   0.934214
 Electronic spatial extent (au):  <R**2>=             90.7160
 Charge=             -0.0000 electrons
 Dipole moment (field-independent basis, Debye):
    X=              0.7296    Y=             -0.6244    Z=              0.0000  Tot=              0.9603
 Quadrupole moment (field-independent basis, Debye-Ang):
   XX=            -15.9367   YY=            -14.7182   ZZ=            -13.3529
   XY=             -0.3743   XZ=              0.0000   YZ=              0.0000
 Traceless Quadrupole moment (field-independent basis, Debye-Ang):
   XX=             -1.2674   YY=             -0.0489   ZZ=              1.3164
   XY=             -0.3743   XZ=              0.0000   YZ=              0.0000
 Octapole moment (field-independent basis, Debye-Ang**2):
  XXX=              1.6820  YYY=             -1.4505  ZZZ=             -0.0000  XYY=              0.8129
  XXY=             -1.4267  XXZ=             -0.0000  XZZ=              0.3987  YZZ=             -0.3796
  YYZ=             -0.0000  XYZ=             -0.0000
 Hexadecapole moment (field-independent basis, Debye-Ang**3):
 XXXX=            -24.5245 YYYY=            -78.9117 ZZZZ=            -29.6340 XXXY=              1.7098
 XXXZ=              0.0000 YYYX=              0.9392 YYYZ=              0.0000 ZZZX=              0.0000
 ZZZY=              0.0000 XXYY=            -19.7250 XXZZ=             -9.7829 YYZZ=            -15.6031
 XXYZ=             -0.0000 YYXZ=              0.0000 ZZXY=              0.1764
 N-N= 3.956914555428D+01 E-N=-2.622383766917D+02  KE= 7.922637303848D+01
 Symmetry A'   KE= 7.521273462695D+01
 Symmetry A"   KE= 4.013638411533D+00
 Symmetry A'   SP= 1.000000000000D+00
 Symmetry A"   SP= 1.031214374756D-14
                          Isotropic Fermi Contact Couplings
        Atom                 a.u.       MegaHertz       Gauss      10(-4) cm-1
     1  C(13)             -0.02195     -24.68153      -8.80698      -8.23287
     2  C(13)              0.06532      73.43059      26.20186      24.49381
     3  H(1)               0.00507      22.64879       8.08165       7.55482
     4  H(1)               0.00507      22.64879       8.08165       7.55482
     5  H(1)              -0.01352     -60.43650     -21.56525     -20.15945
     6  H(1)              -0.01352     -60.43650     -21.56525     -20.15945
     7  H(1)               0.05995     267.97236      95.61920      89.38596
 --------------------------------------------------------
       Center         ----  Spin Dipole Couplings  ----
                      3XX-RR        3YY-RR        3ZZ-RR
 --------------------------------------------------------
     1   Atom        0.083269     -0.015051     -0.068218
     2   Atom        1.096984     -0.547182     -0.549802
     3   Atom       -0.002607      0.004412     -0.001805
     4   Atom       -0.002607      0.004412     -0.001805
     5   Atom        0.004812     -0.035010      0.030198
     6   Atom        0.004812     -0.035010      0.030198
     7   Atom        0.012199      0.019672     -0.031871
 --------------------------------------------------------
                        XY            XZ            YZ
 --------------------------------------------------------
     1   Atom        0.003781     -0.000000      0.000000
     2   Atom       -0.139300     -0.000000     -0.000000
     3   Atom        0.002470     -0.002029     -0.013623
     4   Atom        0.002470      0.002029      0.013623
     5   Atom       -0.004883      0.002881      0.057855
     6   Atom       -0.004883     -0.002881     -0.057855
     7   Atom       -0.007678     -0.000000      0.000000
 --------------------------------------------------------


 ---------------------------------------------------------------------------------
              Anisotropic Spin Dipole Couplings in Principal Axis System
 ---------------------------------------------------------------------------------

       Atom             a.u.   MegaHertz   Gauss  10(-4) cm-1        Axes

              Baa    -0.0682    -9.154    -3.266    -3.054  0.0000 -0.0000  1.0000
     1 C(13)  Bbb    -0.0152    -2.039    -0.728    -0.680 -0.0384  0.9993  0.0000
              Bcc     0.0834    11.193     3.994     3.734  0.9993  0.0384  0.0000
 
              Baa    -0.5589   -74.999   -26.762   -25.017  0.0838  0.9965  0.0000
     2 C(13)  Bbb    -0.5498   -73.778   -26.326   -24.610 -0.0000 -0.0000  1.0000
              Bcc     1.1087   148.777    53.087    49.627  0.9965 -0.0838  0.0000
 
              Baa    -0.0127    -6.760    -2.412    -2.255  0.0048  0.6231  0.7821
     3 H(1)   Bbb    -0.0032    -1.687    -0.602    -0.563  0.9853 -0.1365  0.1028
              Bcc     0.0158     8.447     3.014     2.817  0.1708  0.7701 -0.6146
 
              Baa    -0.0127    -6.760    -2.412    -2.255 -0.0048 -0.6231  0.7821
     4 H(1)   Bbb    -0.0032    -1.687    -0.602    -0.563  0.9853 -0.1365 -0.1028
              Bcc     0.0158     8.447     3.014     2.817  0.1708  0.7701  0.6146
 
              Baa    -0.0693   -36.949   -13.184   -12.325  0.0763  0.8609 -0.5030
     5 H(1)   Bbb     0.0052     2.799     0.999     0.934  0.9971 -0.0661  0.0382
              Bcc     0.0640    34.149    12.185    11.391  0.0004  0.5045  0.8634
 
              Baa    -0.0693   -36.949   -13.184   -12.325  0.0763  0.8609  0.5030
     6 H(1)   Bbb     0.0052     2.799     0.999     0.934  0.9971 -0.0661 -0.0382
              Bcc     0.0640    34.149    12.185    11.391 -0.0004 -0.5045  0.8634
 
              Baa    -0.0319   -17.005    -6.068    -5.672  0.0000 -0.0000  1.0000
     7 H(1)   Bbb     0.0074     3.946     1.408     1.316  0.8478  0.5303 -0.0000
              Bcc     0.0245    13.058     4.660     4.356 -0.5303  0.8478  0.0000
 

 ---------------------------------------------------------------------------------

 PrsmSu:  requested number of processors reduced to:  13 ShMem   1 Linda.
 Calling FoFJK, ICntrl=      2127 FMM=F ISym2X=1 I1Cent= 0 IOpClX= 1 NMat=1 NMatS=1 NMatT=0.
 ***** Axes restored to original set *****
 -------------------------------------------------------------------
 Center     Atomic                   Forces (Hartrees/Bohr)
 Number     Number              X              Y              Z
 -------------------------------------------------------------------
      1        6          -0.005496593    0.000000000    0.109657267
      2        6          -0.040536862   -0.000000000   -0.136753209
      3        1          -0.029558394    0.003516986    0.004023157
      4        1          -0.029558394   -0.003516986    0.004023157
      5        1           0.000588876   -0.002949348    0.000444264
      6        1           0.000588876    0.002949348    0.000444264
      7        1           0.103972492   -0.000000000    0.018161100
 -------------------------------------------------------------------
 Cartesian Forces:  Max     0.136753209 RMS     0.046477185

 GradGradGradGradGradGradGradGradGradGradGradGradGradGradGradGradGradGrad
 Berny optimization.
 FormGI is forming the generalized inverse of G from B-inverse, IUseBI=4.
 Internal  Forces:  Max     0.135864728 RMS     0.039741638
 Search for a local minimum.
 Step number   1 out of a maximum of  100
 All quantities printed in internal units (Hartrees-Bohrs-Radians)
 Mixed Optimization -- RFO/linear search
 Second derivative matrix not updated -- first step.
 ITU=  0
     Eigenvalues ---    0.02949   0.02949   0.05416   0.09742   0.16000
     Eigenvalues ---    0.16000   0.16000   0.16000   0.16000   0.35422
     Eigenvalues ---    0.35422   0.35422   0.35422   0.47688   0.58349
 RFO step:  Lambda=-7.48071971D-02 EMin= 2.94911032D-02
 Linear search not attempted -- first point.
 Maximum step size (   0.300) exceeded in Quadratic search.
    -- Step size scaled by   0.836
 Iteration  1 RMS(Cart)=  0.10953935 RMS(Int)=  0.00773061
 Iteration  2 RMS(Cart)=  0.00625350 RMS(Int)=  0.00528613
 Iteration  3 RMS(Cart)=  0.00003459 RMS(Int)=  0.00528606
 Iteration  4 RMS(Cart)=  0.00000012 RMS(Int)=  0.00528606
 ClnCor:  largest displacement from symmetrization is 5.40D-13 for atom     4.
 Variable       Old X    -DE/DX   Delta X   Delta X   Delta X     New X
                                 (Linear)    (Quad)   (Total)
    R1        2.52271   0.13586   0.00000   0.17258   0.17258   2.69529
    R2        2.04995   0.00511   0.00000   0.00995   0.00995   2.05990
    R3        2.04995   0.00511   0.00000   0.00995   0.00995   2.05990
    R4        1.88973   0.10397   0.00000   0.15760   0.15760   2.04732
    R5        2.04995  -0.00274   0.00000  -0.00535  -0.00535   2.04461
    R6        2.04995  -0.00274   0.00000  -0.00535  -0.00535   2.04461
    A1        2.12427   0.00108   0.00000   0.00383  -0.00987   2.11440
    A2        2.12427   0.00108   0.00000   0.00383  -0.00987   2.11440
    A3        1.57080   0.03645   0.00000   0.17176   0.17098   1.74178
    A4        2.03464  -0.00215   0.00000  -0.00766  -0.02183   2.01281
    A5        1.57080   0.00203   0.00000   0.04712   0.04639   1.61719
    A6        1.57080   0.00203   0.00000   0.04712   0.04639   1.61719
    A7        2.12427   0.00080   0.00000   0.00285   0.00285   2.12712
    A8        2.12427   0.00080   0.00000   0.00285   0.00285   2.12712
    A9        2.03464  -0.00160   0.00000  -0.00571  -0.00571   2.02893
    D1        0.00000   0.02525   0.00000   0.16426   0.16276   0.16276
    D2        3.14159   0.02457   0.00000   0.15877   0.15727  -2.98432
    D3        3.14159  -0.02457   0.00000  -0.15877  -0.15727   2.98432
    D4        0.00000  -0.02525   0.00000  -0.16426  -0.16276  -0.16276
    D5       -1.57080   0.00034   0.00000   0.00275   0.00275  -1.56805
    D6        1.57080  -0.00034   0.00000  -0.00275  -0.00275   1.56805
         Item               Value     Threshold  Converged?
 Maximum Force            0.135865     0.000015     NO 
 RMS     Force            0.039742     0.000010     NO 
 Maximum Displacement     0.269802     0.000060     NO 
 RMS     Displacement     0.109289     0.000040     NO 
 Predicted change in Energy=-4.346655D-02
 GradGradGradGradGradGradGradGradGradGradGradGradGradGradGradGradGradGrad

                          Input orientation:                          
 ---------------------------------------------------------------------
 Center     Atomic      Atomic             Coordinates (Angstroms)
 Number     Number       Type             X           Y           Z
 ---------------------------------------------------------------------
      1          6           0        0.066289    0.000000    0.687872
      2          6           0       -0.016336    0.000000   -0.736021
      3          1           0       -0.049447    0.921002    1.259343
      4          1           0       -0.049447   -0.921002    1.259343
      5          1           0       -0.046916    0.918798   -1.306556
      6          1           0       -0.046916   -0.918798   -1.306556
      7          1           0        1.142773   -0.000000    0.810055
 ---------------------------------------------------------------------
                    Distance matrix (angstroms):
                    1          2          3          4          5
     1  C    0.000000
     2  C    1.426288   0.000000
     3  H    1.090055   2.197912   0.000000
     4  H    1.090055   2.197912   1.842005   0.000000
     5  H    2.198806   1.081959   2.565900   3.157326   0.000000
     6  H    2.198806   1.081959   3.157326   2.565900   1.837596
     7  H    1.083396   1.932326   1.572099   1.572099   2.596072
                    6          7
     6  H    0.000000
     7  H    2.596072   0.000000
 Stoichiometry    C2H5(2)
 Framework group  CS[SG(C2H),X(H4)]
 Deg. of freedom     9
 Full point group                 CS      NOp   2
 Largest Abelian subgroup         CS      NOp   2
 Largest concise Abelian subgroup CS      NOp   2
                         Standard orientation:                         
 ---------------------------------------------------------------------
 Center     Atomic      Atomic             Coordinates (Angstroms)
 Number     Number       Type             X           Y           Z
 ---------------------------------------------------------------------
      1          6           0       -0.045609   -0.661238    0.000000
      2          6           0       -0.045609    0.765050    0.000000
      3          1           0       -0.194256   -1.225045    0.921002
      4          1           0       -0.194256   -1.225045   -0.921002
      5          1           0       -0.043086    1.336398    0.918798
      6          1           0       -0.043086    1.336398   -0.918798
      7          1           0        1.021990   -0.845576   -0.000000
 ---------------------------------------------------------------------
 Rotational constants (GHZ):         141.1696465          26.4845501          22.6375549
 Standard basis: EPR-III (5D, 7F)
 There are    95 symmetry adapted cartesian basis functions of A'  symmetry.
 There are    50 symmetry adapted cartesian basis functions of A"  symmetry.
 There are    87 symmetry adapted basis functions of A'  symmetry.
 There are    48 symmetry adapted basis functions of A"  symmetry.
   135 basis functions,   181 primitive gaussians,   145 cartesian basis functions
     9 alpha electrons        8 beta electrons
       nuclear repulsion energy        37.8059873769 Hartrees.
 NAtoms=    7 NActive=    7 NUniq=    5 SFac= 1.96D+00 NAtFMM=   60 NAOKFM=F Big=F
 Integral buffers will be    131072 words long.
 Raffenetti 2 integral format.
 Two-electron integral symmetry is turned on.
 One-electron integrals computed using PRISM.
 PrsmSu:  requested number of processors reduced to:  13 ShMem   1 Linda.
 NBasis=   135 RedAO= T EigKep=  4.78D-05  NBF=    87    48
 NBsUse=   135 1.00D-06 EigRej= -1.00D+00 NBFU=    87    48
 Initial guess from the checkpoint file:  "/scratch/Gau-30061.chk"
 B after Tr=     0.000000   -0.000000    0.000000
         Rot=    0.999806   -0.000000    0.000000    0.019697 Ang=   2.26 deg.
 Initial guess orbital symmetries:
 Alpha Orbitals:
       Occupied  (A') (A') (A') (A') (A") (A') (A') (A") (A')
       Virtual   (A') (A') (A") (A') (A") (A') (A') (A') (A') (A")
                 (A') (A') (A") (A') (A') (A') (A") (A') (A") (A')
                 (A') (A') (A") (A') (A") (A') (A") (A') (A") (A')
                 (A') (A") (A') (A') (A") (A") (A') (A') (A") (A')
                 (A") (A') (A") (A') (A') (A') (A') (A') (A") (A')
                 (A") (A') (A") (A") (A') (A') (A') (A') (A") (A')
                 (A") (A') (A') (A") (A') (A') (A") (A') (A") (A")
                 (A') (A") (A') (A') (A") (A') (A") (A') (A") (A')
                 (A") (A') (A') (A") (A") (A') (A') (A') (A") (A')
                 (A") (A') (A') (A') (A') (A") (A') (A") (A") (A')
                 (A') (A") (A') (A') (A') (A") (A") (A") (A') (A')
                 (A') (A') (A") (A") (A') (A') (A') (A') (A') (A')
                 (A") (A') (A") (A') (A') (A')
 Beta  Orbitals:
       Occupied  (A') (A') (A') (A') (A") (A') (A') (A")
       Virtual   (A') (A') (A') (A") (A') (A") (A') (A') (A') (A')
                 (A") (A') (A') (A") (A') (A') (A') (A") (A') (A")
                 (A') (A') (A') (A") (A') (A") (A') (A") (A') (A")
                 (A') (A') (A") (A') (A') (A") (A") (A') (A') (A")
                 (A') (A") (A') (A") (A') (A') (A') (A') (A') (A")
                 (A') (A") (A') (A") (A") (A') (A') (A') (A') (A")
                 (A') (A") (A') (A') (A") (A') (A') (A") (A") (A')
                 (A") (A') (A") (A') (A') (A") (A') (A") (A') (A")
                 (A') (A") (A') (A") (A') (A") (A') (A') (A') (A")
                 (A') (A") (A') (A') (A') (A') (A") (A') (A") (A")
                 (A') (A') (A") (A') (A') (A') (A") (A") (A") (A')
                 (A') (A') (A') (A") (A") (A') (A') (A') (A') (A')
                 (A") (A') (A') (A") (A') (A') (A')
 Initial guess <Sx>= 0.0000 <Sy>= 0.0000 <Sz>= 0.5000 <S**2>= 0.7539 S= 0.5019
 ExpMin= 3.26D-02 ExpMax= 1.64D+04 ExpMxC= 2.43D+03 IAcc=3 IRadAn=         5 AccDes= 0.00D+00
 Harris functional with IExCor=  402 and IRadAn=       5 diagonalized for initial guess.
 HarFok:  IExCor=  402 AccDes= 0.00D+00 IRadAn=         5 IDoV= 1 UseB2=F ITyADJ=14
 ICtDFT=  3500011 ScaDFX=  1.000000  1.000000  1.000000  1.000000
 FoFCou: FMM=F IPFlag=           0 FMFlag=      100000 FMFlg1=           0
         NFxFlg=           0 DoJE=T BraDBF=F KetDBF=T FulRan=T
         wScrn=  0.000000 ICntrl=       500 IOpCl=  0 I1Cent=   200000004 NGrid=           0
         NMat0=    1 NMatS0=      1 NMatT0=    0 NMatD0=    1 NMtDS0=    0 NMtDT0=    0
 Petite list used in FoFCou.
 Keep R1 and R2 ints in memory in symmetry-blocked form, NReq=63753385.
 Requested convergence on RMS density matrix=1.00D-08 within 128 cycles.
 Requested convergence on MAX density matrix=1.00D-06.
 Requested convergence on             energy=1.00D-06.
 No special actions if energy rises.
 SCF Done:  E(UB3LYP) =  -79.1760256308     A.U. after   11 cycles
            NFock= 11  Conv=0.65D-08     -V/T= 2.0039
 <Sx>= 0.0000 <Sy>= 0.0000 <Sz>= 0.5000 <S**2>= 0.7542 S= 0.5021
 <L.S>= 0.000000000000E+00
 Annihilation of the first spin contaminant:
 S**2 before annihilation     0.7542,   after     0.7500
 PrsmSu:  requested number of processors reduced to:  13 ShMem   1 Linda.
 Calling FoFJK, ICntrl=      2127 FMM=F ISym2X=1 I1Cent= 0 IOpClX= 1 NMat=1 NMatS=1 NMatT=0.
 ***** Axes restored to original set *****
 -------------------------------------------------------------------
 Center     Atomic                   Forces (Hartrees/Bohr)
 Number     Number              X              Y              Z
 -------------------------------------------------------------------
      1        6           0.043606055    0.000000000    0.031756526
      2        6          -0.024388740   -0.000000000   -0.034914186
      3        1          -0.024020634   -0.000687135   -0.002772628
      4        1          -0.024020634    0.000687135   -0.002772628
      5        1           0.000624098   -0.000141097    0.001992660
      6        1           0.000624098    0.000141097    0.001992660
      7        1           0.027575757   -0.000000000    0.004717596
 -------------------------------------------------------------------
 Cartesian Forces:  Max     0.043606055 RMS     0.017842586

 GradGradGradGradGradGradGradGradGradGradGradGradGradGradGradGradGradGrad
 Berny optimization.
 Using GEDIIS/GDIIS optimizer.
 FormGI is forming the generalized inverse of G from B-inverse, IUseBI=4.
 Internal  Forces:  Max     0.032217413 RMS     0.012817222
 Search for a local minimum.
 Step number   2 out of a maximum of  100
 All quantities printed in internal units (Hartrees-Bohrs-Radians)
 Mixed Optimization -- RFO/linear search
 Update second derivatives using D2CorX and points    1    2
 DE= -4.22D-02 DEPred=-4.35D-02 R= 9.71D-01
 TightC=F SS=  1.41D+00  RLast= 4.38D-01 DXNew= 5.0454D-01 1.3132D+00
 Trust test= 9.71D-01 RLast= 4.38D-01 DXMaxT set to 5.05D-01
 ITU=  1  0
 Use linear search instead of GDIIS.
     Eigenvalues ---    0.02949   0.02949   0.05226   0.09445   0.15776
     Eigenvalues ---    0.16000   0.16000   0.16000   0.16890   0.35414
     Eigenvalues ---    0.35422   0.35422   0.35455   0.48102   0.60138
 RFO step:  Lambda=-3.09899540D-02 EMin= 2.94905754D-02
 Quartic linear search produced a step of  0.90980.
 Iteration  1 RMS(Cart)=  0.09807370 RMS(Int)=  0.08059402
 Iteration  2 RMS(Cart)=  0.06379616 RMS(Int)=  0.03771986
 Iteration  3 RMS(Cart)=  0.00724608 RMS(Int)=  0.03714134
 Iteration  4 RMS(Cart)=  0.00072206 RMS(Int)=  0.03713674
 Iteration  5 RMS(Cart)=  0.00007433 RMS(Int)=  0.03713669
 Iteration  6 RMS(Cart)=  0.00000781 RMS(Int)=  0.03713669
 Iteration  7 RMS(Cart)=  0.00000082 RMS(Int)=  0.03713669
 ClnCor:  largest displacement from symmetrization is 9.01D-13 for atom     6.
 Variable       Old X    -DE/DX   Delta X   Delta X   Delta X     New X
                                 (Linear)    (Quad)   (Total)
    R1        2.69529   0.03222   0.15702  -0.06832   0.08869   2.78399
    R2        2.05990   0.00052   0.00906  -0.00679   0.00227   2.06217
    R3        2.05990   0.00052   0.00906  -0.00679   0.00227   2.06217
    R4        2.04732   0.02793   0.14338  -0.04892   0.09446   2.14178
    R5        2.04461  -0.00119  -0.00486  -0.00056  -0.00542   2.03918
    R6        2.04461  -0.00119  -0.00486  -0.00056  -0.00542   2.03918
    A1        2.11440  -0.00605  -0.00898  -0.06613  -0.14276   1.97164
    A2        2.11440  -0.00605  -0.00898  -0.06613  -0.14276   1.97164
    A3        1.74178   0.01286   0.15556   0.09222   0.24527   1.98704
    A4        2.01281   0.00268  -0.01986   0.00792  -0.12548   1.88733
    A5        1.61719   0.00902   0.04221   0.15925   0.19918   1.81637
    A6        1.61719   0.00902   0.04221   0.15925   0.19918   1.81637
    A7        2.12712  -0.00112   0.00259  -0.01297  -0.01043   2.11669
    A8        2.12712  -0.00112   0.00259  -0.01297  -0.01043   2.11669
    A9        2.02893   0.00224  -0.00520   0.02588   0.02064   2.04957
    D1        0.16276   0.01770   0.14808   0.23886   0.34541   0.50817
    D2       -2.98432   0.01711   0.14309   0.22529   0.32685  -2.65747
    D3        2.98432  -0.01711  -0.14309  -0.22529  -0.32685   2.65747
    D4       -0.16276  -0.01770  -0.14808  -0.23886  -0.34541  -0.50817
    D5       -1.56805   0.00030   0.00250   0.00678   0.00928  -1.55877
    D6        1.56805  -0.00030  -0.00250  -0.00678  -0.00928   1.55877
         Item               Value     Threshold  Converged?
 Maximum Force            0.032217     0.000015     NO 
 RMS     Force            0.012817     0.000010     NO 
 Maximum Displacement     0.368091     0.000060     NO 
 RMS     Displacement     0.150637     0.000040     NO 
 Predicted change in Energy=-1.440872D-02
 GradGradGradGradGradGradGradGradGradGradGradGradGradGradGradGradGradGrad

                          Input orientation:                          
 ---------------------------------------------------------------------
 Center     Atomic      Atomic             Coordinates (Angstroms)
 Number     Number       Type             X           Y           Z
 ---------------------------------------------------------------------
      1          6           0        0.235976   -0.000000    0.692642
      2          6           0       -0.026047    0.000000   -0.757091
      3          1           0       -0.158967    0.883606    1.196725
      4          1           0       -0.158967   -0.883606    1.196725
      5          1           0       -0.114776    0.922193   -1.310375
      6          1           0       -0.114776   -0.922193   -1.310375
      7          1           0        1.337558   -0.000000    0.959229
 ---------------------------------------------------------------------
                    Distance matrix (angstroms):
                    1          2          3          4          5
     1  C    0.000000
     2  C    1.473222   0.000000
     3  H    1.091256   2.148448   0.000000
     4  H    1.091256   2.148448   1.767212   0.000000
     5  H    2.232833   1.079090   2.507787   3.090051   0.000000
     6  H    2.232833   1.079090   3.090051   2.507787   1.844386
     7  H    1.133381   2.192071   1.754068   1.754068   2.847950
                    6          7
     6  H    0.000000
     7  H    2.847950   0.000000
 Stoichiometry    C2H5(2)
 Framework group  CS[SG(C2H),X(H4)]
 Deg. of freedom     9
 Full point group                 CS      NOp   2
 Largest Abelian subgroup         CS      NOp   2
 Largest concise Abelian subgroup CS      NOp   2
                         Standard orientation:                         
 ---------------------------------------------------------------------
 Center     Atomic      Atomic             Coordinates (Angstroms)
 Number     Number       Type             X           Y           Z
 ---------------------------------------------------------------------
      1          6           0       -0.006011   -0.682141    0.000000
      2          6           0       -0.006011    0.791081   -0.000000
      3          1           0       -0.484312   -1.107944    0.883606
      4          1           0       -0.484312   -1.107944   -0.883606
      5          1           0        0.005079    1.351325    0.922193
      6          1           0        0.005079    1.351325   -0.922193
      7          1           0        1.030595   -1.140401   -0.000000
 ---------------------------------------------------------------------
 Rotational constants (GHZ):         133.2599010          25.4518757          22.3227093
 Standard basis: EPR-III (5D, 7F)
 There are    95 symmetry adapted cartesian basis functions of A'  symmetry.
 There are    50 symmetry adapted cartesian basis functions of A"  symmetry.
 There are    87 symmetry adapted basis functions of A'  symmetry.
 There are    48 symmetry adapted basis functions of A"  symmetry.
   135 basis functions,   181 primitive gaussians,   145 cartesian basis functions
     9 alpha electrons        8 beta electrons
       nuclear repulsion energy        37.0102765878 Hartrees.
 NAtoms=    7 NActive=    7 NUniq=    5 SFac= 1.96D+00 NAtFMM=   60 NAOKFM=F Big=F
 Integral buffers will be    131072 words long.
 Raffenetti 2 integral format.
 Two-electron integral symmetry is turned on.
 One-electron integrals computed using PRISM.
 PrsmSu:  requested number of processors reduced to:  13 ShMem   1 Linda.
 NBasis=   135 RedAO= T EigKep=  4.97D-05  NBF=    87    48
 NBsUse=   135 1.00D-06 EigRej= -1.00D+00 NBFU=    87    48
 Initial guess from the checkpoint file:  "/scratch/Gau-30061.chk"
 B after Tr=     0.000000    0.000000   -0.000000
         Rot=    0.999181   -0.000000   -0.000000    0.040454 Ang=   4.64 deg.
 Initial guess orbital symmetries:
 Alpha Orbitals:
       Occupied  (A') (A') (A') (A') (A") (A') (A') (A") (A')
       Virtual   (A') (A') (A") (A') (A") (A') (A') (A') (A') (A")
                 (A') (A') (A") (A') (A') (A") (A') (A') (A') (A")
                 (A') (A") (A') (A') (A") (A') (A') (A") (A') (A")
                 (A") (A') (A') (A') (A") (A") (A') (A') (A") (A')
                 (A") (A') (A') (A") (A') (A') (A") (A') (A') (A')
                 (A') (A") (A") (A") (A') (A') (A') (A') (A") (A')
                 (A") (A') (A') (A") (A') (A') (A") (A') (A") (A')
                 (A") (A') (A") (A") (A') (A') (A") (A") (A') (A')
                 (A") (A') (A') (A") (A') (A") (A') (A') (A") (A')
                 (A") (A') (A') (A') (A') (A") (A") (A') (A') (A")
                 (A') (A') (A") (A') (A") (A') (A") (A") (A') (A')
                 (A') (A') (A") (A") (A') (A') (A') (A') (A') (A')
                 (A") (A') (A") (A') (A') (A')
 Beta  Orbitals:
       Occupied  (A') (A') (A') (A') (A") (A') (A') (A")
       Virtual   (A') (A') (A') (A") (A') (A") (A') (A') (A') (A")
                 (A') (A') (A') (A") (A') (A') (A") (A') (A') (A")
                 (A') (A") (A') (A') (A') (A") (A') (A') (A") (A')
                 (A") (A") (A') (A') (A') (A") (A") (A') (A') (A")
                 (A') (A") (A') (A') (A") (A') (A') (A") (A') (A')
                 (A') (A') (A") (A") (A") (A') (A') (A') (A') (A")
                 (A') (A") (A') (A') (A") (A') (A') (A") (A') (A")
                 (A') (A") (A") (A') (A") (A') (A') (A") (A") (A')
                 (A') (A") (A') (A') (A") (A') (A") (A') (A') (A")
                 (A') (A') (A") (A') (A') (A') (A") (A") (A') (A')
                 (A") (A') (A') (A") (A') (A") (A') (A") (A") (A')
                 (A') (A') (A') (A") (A") (A') (A') (A') (A') (A')
                 (A') (A") (A') (A") (A') (A') (A')
 Initial guess <Sx>= 0.0000 <Sy>= 0.0000 <Sz>= 0.5000 <S**2>= 0.7543 S= 0.5022
 ExpMin= 3.26D-02 ExpMax= 1.64D+04 ExpMxC= 2.43D+03 IAcc=3 IRadAn=         5 AccDes= 0.00D+00
 Harris functional with IExCor=  402 and IRadAn=       5 diagonalized for initial guess.
 HarFok:  IExCor=  402 AccDes= 0.00D+00 IRadAn=         5 IDoV= 1 UseB2=F ITyADJ=14
 ICtDFT=  3500011 ScaDFX=  1.000000  1.000000  1.000000  1.000000
 FoFCou: FMM=F IPFlag=           0 FMFlag=      100000 FMFlg1=           0
         NFxFlg=           0 DoJE=T BraDBF=F KetDBF=T FulRan=T
         wScrn=  0.000000 ICntrl=       500 IOpCl=  0 I1Cent=   200000004 NGrid=           0
         NMat0=    1 NMatS0=      1 NMatT0=    0 NMatD0=    1 NMtDS0=    0 NMtDT0=    0
 Petite list used in FoFCou.
 Keep R1 and R2 ints in memory in symmetry-blocked form, NReq=63753385.
 Requested convergence on RMS density matrix=1.00D-08 within 128 cycles.
 Requested convergence on MAX density matrix=1.00D-06.
 Requested convergence on             energy=1.00D-06.
 No special actions if energy rises.
 SCF Done:  E(UB3LYP) =  -79.1960427872     A.U. after   12 cycles
            NFock= 12  Conv=0.24D-08     -V/T= 2.0060
 <Sx>= 0.0000 <Sy>= 0.0000 <Sz>= 0.5000 <S**2>= 0.7541 S= 0.5021
 <L.S>= 0.000000000000E+00
 Annihilation of the first spin contaminant:
 S**2 before annihilation     0.7541,   after     0.7500
 PrsmSu:  requested number of processors reduced to:  13 ShMem   1 Linda.
 Calling FoFJK, ICntrl=      2127 FMM=F ISym2X=1 I1Cent= 0 IOpClX= 1 NMat=1 NMatS=1 NMatT=0.
 ***** Axes restored to original set *****
 -------------------------------------------------------------------
 Center     Atomic                   Forces (Hartrees/Bohr)
 Number     Number              X              Y              Z
 -------------------------------------------------------------------
      1        6           0.018655298    0.000000000    0.012408693
      2        6          -0.001218110    0.000000000   -0.001946626
      3        1          -0.002062056    0.000713427   -0.001131813
      4        1          -0.002062056   -0.000713427   -0.001131813
      5        1           0.000636721    0.000989035   -0.000301902
      6        1           0.000636721   -0.000989035   -0.000301902
      7        1          -0.014586519    0.000000000   -0.007594638
 -------------------------------------------------------------------
 Cartesian Forces:  Max     0.018655298 RMS     0.006144094

 GradGradGradGradGradGradGradGradGradGradGradGradGradGradGradGradGradGrad
 Berny optimization.
 Using GEDIIS/GDIIS optimizer.
 FormGI is forming the generalized inverse of G from B-inverse, IUseBI=4.
 Internal  Forces:  Max     0.015963527 RMS     0.003883384
 Search for a local minimum.
 Step number   3 out of a maximum of  100
 All quantities printed in internal units (Hartrees-Bohrs-Radians)
 Mixed Optimization -- RFO/linear search
 Update second derivatives using D2CorX and points    2    3
 DE= -2.00D-02 DEPred=-1.44D-02 R= 1.39D+00
 TightC=F SS=  1.41D+00  RLast= 8.16D-01 DXNew= 8.4853D-01 2.4482D+00
 Trust test= 1.39D+00 RLast= 8.16D-01 DXMaxT set to 8.49D-01
 ITU=  1  1  0
 Use linear search instead of GDIIS.
     Eigenvalues ---    0.02944   0.02949   0.05072   0.08167   0.15078
     Eigenvalues ---    0.16000   0.16000   0.16013   0.16867   0.35422
     Eigenvalues ---    0.35422   0.35429   0.35463   0.50473   0.59680
 RFO step:  Lambda=-8.06957397D-04 EMin= 2.94430569D-02
 Quartic linear search produced a step of -0.00712.
 Iteration  1 RMS(Cart)=  0.01185481 RMS(Int)=  0.00025106
 Iteration  2 RMS(Cart)=  0.00016002 RMS(Int)=  0.00018678
 Iteration  3 RMS(Cart)=  0.00000003 RMS(Int)=  0.00018678
 ClnCor:  largest displacement from symmetrization is 2.73D-13 for atom     6.
 Variable       Old X    -DE/DX   Delta X   Delta X   Delta X     New X
                                 (Linear)    (Quad)   (Total)
    R1        2.78399   0.00250  -0.00063   0.00922   0.00858   2.79257
    R2        2.06217   0.00080  -0.00002   0.00260   0.00259   2.06476
    R3        2.06217   0.00080  -0.00002   0.00260   0.00259   2.06476
    R4        2.14178  -0.01596  -0.00067  -0.02824  -0.02891   2.11287
    R5        2.03918   0.00095   0.00004   0.00248   0.00252   2.04170
    R6        2.03918   0.00095   0.00004   0.00248   0.00252   2.04170
    A1        1.97164  -0.00137   0.00102  -0.01054  -0.00923   1.96241
    A2        1.97164  -0.00137   0.00102  -0.01054  -0.00923   1.96241
    A3        1.98704  -0.00459  -0.00175  -0.01881  -0.02062   1.96643
    A4        1.88733   0.00116   0.00089  -0.00255  -0.00110   1.88623
    A5        1.81637   0.00352  -0.00142   0.02385   0.02238   1.83875
    A6        1.81637   0.00352  -0.00142   0.02385   0.02238   1.83875
    A7        2.11669  -0.00025   0.00007  -0.00135  -0.00137   2.11532
    A8        2.11669  -0.00025   0.00007  -0.00135  -0.00137   2.11532
    A9        2.04957   0.00049  -0.00015   0.00219   0.00195   2.05152
    D1        0.50817   0.00069  -0.00246   0.02295   0.02072   0.52889
    D2       -2.65747  -0.00010  -0.00233  -0.00303  -0.00512  -2.66260
    D3        2.65747   0.00010   0.00233   0.00303   0.00512   2.66260
    D4       -0.50817  -0.00069   0.00246  -0.02295  -0.02072  -0.52889
    D5       -1.55877   0.00039  -0.00007   0.01299   0.01292  -1.54585
    D6        1.55877  -0.00039   0.00007  -0.01299  -0.01292   1.54585
         Item               Value     Threshold  Converged?
 Maximum Force            0.015964     0.000015     NO 
 RMS     Force            0.003883     0.000010     NO 
 Maximum Displacement     0.042874     0.000060     NO 
 RMS     Displacement     0.011811     0.000040     NO 
 Predicted change in Energy=-4.058854D-04
 GradGradGradGradGradGradGradGradGradGradGradGradGradGradGradGradGradGrad

                          Input orientation:                          
 ---------------------------------------------------------------------
 Center     Atomic      Atomic             Coordinates (Angstroms)
 Number     Number       Type             X           Y           Z
 ---------------------------------------------------------------------
      1          6           0        0.239789    0.000000    0.700338
      2          6           0       -0.028802   -0.000000   -0.752813
      3          1           0       -0.163959    0.884362    1.199059
      4          1           0       -0.163959   -0.884362    1.199059
      5          1           0       -0.107853    0.923879   -1.307352
      6          1           0       -0.107853   -0.923879   -1.307352
      7          1           0        1.332637   -0.000000    0.936541
 ---------------------------------------------------------------------
                    Distance matrix (angstroms):
                    1          2          3          4          5
     1  C    0.000000
     2  C    1.477765   0.000000
     3  H    1.092625   2.147130   0.000000
     4  H    1.092625   2.147130   1.768723   0.000000
     5  H    2.237236   1.080423   2.507350   3.091112   0.000000
     6  H    2.237236   1.080423   3.091112   2.507350   1.847757
     7  H    1.118083   2.169662   1.758070   1.758070   2.821988
                    6          7
     6  H    0.000000
     7  H    2.821988   0.000000
 Stoichiometry    C2H5(2)
 Framework group  CS[SG(C2H),X(H4)]
 Deg. of freedom     9
 Full point group                 CS      NOp   2
 Largest Abelian subgroup         CS      NOp   2
 Largest concise Abelian subgroup CS      NOp   2
                         Standard orientation:                         
 ---------------------------------------------------------------------
 Center     Atomic      Atomic             Coordinates (Angstroms)
 Number     Number       Type             X           Y           Z
 ---------------------------------------------------------------------
      1          6           0       -0.006029   -0.686853    0.000000
      2          6           0       -0.006029    0.790912   -0.000000
      3          1           0       -0.493696   -1.103884    0.884362
      4          1           0       -0.493696   -1.103884   -0.884362
      5          1           0        0.017026    1.350582    0.923879
      6          1           0        0.017026    1.350582   -0.923879
      7          1           0        1.025686   -1.117751    0.000000
 ---------------------------------------------------------------------
 Rotational constants (GHZ):         132.5039738          25.3622101          22.2573363
 Standard basis: EPR-III (5D, 7F)
 There are    95 symmetry adapted cartesian basis functions of A'  symmetry.
 There are    50 symmetry adapted cartesian basis functions of A"  symmetry.
 There are    87 symmetry adapted basis functions of A'  symmetry.
 There are    48 symmetry adapted basis functions of A"  symmetry.
   135 basis functions,   181 primitive gaussians,   145 cartesian basis functions
     9 alpha electrons        8 beta electrons
       nuclear repulsion energy        37.0066997921 Hartrees.
 NAtoms=    7 NActive=    7 NUniq=    5 SFac= 1.96D+00 NAtFMM=   60 NAOKFM=F Big=F
 Integral buffers will be    131072 words long.
 Raffenetti 2 integral format.
 Two-electron integral symmetry is turned on.
 One-electron integrals computed using PRISM.
 PrsmSu:  requested number of processors reduced to:  13 ShMem   1 Linda.
 NBasis=   135 RedAO= T EigKep=  5.03D-05  NBF=    87    48
 NBsUse=   135 1.00D-06 EigRej= -1.00D+00 NBFU=    87    48
 Initial guess from the checkpoint file:  "/scratch/Gau-30061.chk"
 B after Tr=     0.000000    0.000000    0.000000
         Rot=    0.999999   -0.000000   -0.000000    0.001263 Ang=   0.14 deg.
 Initial guess orbital symmetries:
 Alpha Orbitals:
       Occupied  (A') (A') (A') (A') (A") (A') (A') (A") (A')
       Virtual   (A') (A') (A") (A') (A") (A') (A') (A') (A") (A')
                 (A') (A') (A") (A') (A") (A') (A') (A") (A') (A')
                 (A") (A') (A') (A") (A') (A') (A') (A') (A") (A")
                 (A") (A') (A') (A") (A') (A') (A") (A") (A') (A')
                 (A") (A') (A') (A") (A') (A') (A") (A') (A') (A')
                 (A") (A') (A") (A') (A') (A") (A') (A") (A') (A')
                 (A') (A") (A") (A') (A') (A') (A') (A") (A") (A')
                 (A") (A') (A") (A') (A") (A") (A') (A') (A") (A')
                 (A') (A') (A") (A") (A') (A") (A') (A') (A') (A')
                 (A") (A') (A') (A') (A") (A") (A') (A") (A") (A')
                 (A') (A") (A') (A") (A') (A') (A") (A') (A") (A')
                 (A') (A') (A") (A") (A') (A') (A') (A') (A') (A')
                 (A") (A') (A") (A') (A') (A')
 Beta  Orbitals:
       Occupied  (A') (A') (A') (A') (A") (A') (A') (A")
       Virtual   (A') (A') (A') (A") (A') (A") (A') (A') (A') (A")
                 (A') (A') (A') (A") (A') (A") (A') (A') (A") (A')
                 (A") (A') (A') (A') (A") (A') (A') (A') (A') (A")
                 (A") (A") (A') (A') (A") (A') (A') (A") (A") (A')
                 (A") (A') (A') (A') (A") (A') (A') (A") (A') (A')
                 (A') (A") (A') (A") (A') (A') (A") (A') (A") (A')
                 (A') (A') (A") (A") (A') (A') (A') (A') (A") (A")
                 (A') (A") (A") (A') (A') (A") (A") (A') (A') (A")
                 (A') (A') (A") (A') (A") (A') (A") (A') (A') (A')
                 (A') (A") (A') (A') (A") (A') (A") (A') (A") (A")
                 (A') (A') (A") (A') (A") (A') (A') (A") (A') (A")
                 (A') (A') (A') (A") (A") (A') (A') (A') (A') (A')
                 (A') (A") (A') (A") (A') (A') (A')
 Initial guess <Sx>= 0.0000 <Sy>= 0.0000 <Sz>= 0.5000 <S**2>= 0.7541 S= 0.5021
 ExpMin= 3.26D-02 ExpMax= 1.64D+04 ExpMxC= 2.43D+03 IAcc=3 IRadAn=         5 AccDes= 0.00D+00
 Harris functional with IExCor=  402 and IRadAn=       5 diagonalized for initial guess.
 HarFok:  IExCor=  402 AccDes= 0.00D+00 IRadAn=         5 IDoV= 1 UseB2=F ITyADJ=14
 ICtDFT=  3500011 ScaDFX=  1.000000  1.000000  1.000000  1.000000
 FoFCou: FMM=F IPFlag=           0 FMFlag=      100000 FMFlg1=           0
         NFxFlg=           0 DoJE=T BraDBF=F KetDBF=T FulRan=T
         wScrn=  0.000000 ICntrl=       500 IOpCl=  0 I1Cent=   200000004 NGrid=           0
         NMat0=    1 NMatS0=      1 NMatT0=    0 NMatD0=    1 NMtDS0=    0 NMtDT0=    0
 Petite list used in FoFCou.
 Keep R1 and R2 ints in memory in symmetry-blocked form, NReq=63753385.
 Requested convergence on RMS density matrix=1.00D-08 within 128 cycles.
 Requested convergence on MAX density matrix=1.00D-06.
 Requested convergence on             energy=1.00D-06.
 No special actions if energy rises.
 SCF Done:  E(UB3LYP) =  -79.1966577178     A.U. after   10 cycles
            NFock= 10  Conv=0.33D-08     -V/T= 2.0059
 <Sx>= 0.0000 <Sy>= 0.0000 <Sz>= 0.5000 <S**2>= 0.7541 S= 0.5020
 <L.S>= 0.000000000000E+00
 Annihilation of the first spin contaminant:
 S**2 before annihilation     0.7541,   after     0.7500
 PrsmSu:  requested number of processors reduced to:  13 ShMem   1 Linda.
 Calling FoFJK, ICntrl=      2127 FMM=F ISym2X=1 I1Cent= 0 IOpClX= 1 NMat=1 NMatS=1 NMatT=0.
 ***** Axes restored to original set *****
 -------------------------------------------------------------------
 Center     Atomic                   Forces (Hartrees/Bohr)
 Number     Number              X              Y              Z
 -------------------------------------------------------------------
      1        6           0.010080159    0.000000000    0.006871313
      2        6          -0.001440706    0.000000000   -0.001770294
      3        1          -0.000561396   -0.000013567   -0.000855834
      4        1          -0.000561396    0.000013567   -0.000855834
      5        1           0.000529569    0.000140169    0.000027361
      6        1           0.000529569   -0.000140169    0.000027361
      7        1          -0.008575800   -0.000000000   -0.003444072
 -------------------------------------------------------------------
 Cartesian Forces:  Max     0.010080159 RMS     0.003395637

 GradGradGradGradGradGradGradGradGradGradGradGradGradGradGradGradGradGrad
 Berny optimization.
 Using GEDIIS/GDIIS optimizer.
 FormGI is forming the generalized inverse of G from B-inverse, IUseBI=4.
 Internal  Forces:  Max     0.009109710 RMS     0.002132968
 Search for a local minimum.
 Step number   4 out of a maximum of  100
 All quantities printed in internal units (Hartrees-Bohrs-Radians)
 Mixed Optimization -- RFO/linear search
 Update second derivatives using D2CorX and points    3    4
 DE= -6.15D-04 DEPred=-4.06D-04 R= 1.52D+00
 TightC=F SS=  1.41D+00  RLast= 6.15D-02 DXNew= 1.4270D+00 1.8461D-01
 Trust test= 1.52D+00 RLast= 6.15D-02 DXMaxT set to 8.49D-01
 ITU=  1  1  1  0
 Use linear search instead of GDIIS.
     Eigenvalues ---    0.02700   0.02949   0.05043   0.08293   0.14208
     Eigenvalues ---    0.15210   0.16000   0.16000   0.16021   0.31336
     Eigenvalues ---    0.35422   0.35422   0.35453   0.36012   0.59766
 RFO step:  Lambda=-4.86811868D-05 EMin= 2.69977708D-02
 Quartic linear search produced a step of  0.99557.
 Iteration  1 RMS(Cart)=  0.01127648 RMS(Int)=  0.00019239
 Iteration  2 RMS(Cart)=  0.00014562 RMS(Int)=  0.00012220
 Iteration  3 RMS(Cart)=  0.00000003 RMS(Int)=  0.00012220
 ClnCor:  largest displacement from symmetrization is 2.07D-13 for atom     4.
 Variable       Old X    -DE/DX   Delta X   Delta X   Delta X     New X
                                 (Linear)    (Quad)   (Total)
    R1        2.79257   0.00176   0.00855   0.00136   0.00990   2.80247
    R2        2.06476  -0.00019   0.00258  -0.00330  -0.00073   2.06404
    R3        2.06476  -0.00019   0.00258  -0.00330  -0.00073   2.06404
    R4        2.11287  -0.00911  -0.02878  -0.00650  -0.03528   2.07759
    R5        2.04170   0.00007   0.00251  -0.00218   0.00033   2.04203
    R6        2.04170   0.00007   0.00251  -0.00218   0.00033   2.04203
    A1        1.96241  -0.00075  -0.00919   0.00059  -0.00874   1.95366
    A2        1.96241  -0.00075  -0.00919   0.00059  -0.00874   1.95366
    A3        1.96643  -0.00175  -0.02052   0.00467  -0.01594   1.95049
    A4        1.88623   0.00074  -0.00110   0.00428   0.00300   1.88924
    A5        1.83875   0.00141   0.02228  -0.00539   0.01681   1.85556
    A6        1.83875   0.00141   0.02228  -0.00539   0.01681   1.85556
    A7        2.11532  -0.00013  -0.00136  -0.00018  -0.00181   2.11351
    A8        2.11532  -0.00013  -0.00136  -0.00018  -0.00181   2.11351
    A9        2.05152   0.00024   0.00194  -0.00005   0.00163   2.05315
    D1        0.52889   0.00037   0.02063   0.00157   0.02216   0.55105
    D2       -2.66260  -0.00023  -0.00510  -0.00809  -0.01322  -2.67582
    D3        2.66260   0.00023   0.00510   0.00809   0.01322   2.67582
    D4       -0.52889  -0.00037  -0.02063  -0.00157  -0.02216  -0.55105
    D5       -1.54585   0.00030   0.01287   0.00483   0.01769  -1.52816
    D6        1.54585  -0.00030  -0.01287  -0.00483  -0.01769   1.52816
         Item               Value     Threshold  Converged?
 Maximum Force            0.009110     0.000015     NO 
 RMS     Force            0.002133     0.000010     NO 
 Maximum Displacement     0.037228     0.000060     NO 
 RMS     Displacement     0.011251     0.000040     NO 
 Predicted change in Energy=-2.451256D-04
 GradGradGradGradGradGradGradGradGradGradGradGradGradGradGradGradGradGrad

                          Input orientation:                          
 ---------------------------------------------------------------------
 Center     Atomic      Atomic             Coordinates (Angstroms)
 Number     Number       Type             X           Y           Z
 ---------------------------------------------------------------------
      1          6           0        0.242994    0.000000    0.707667
      2          6           0       -0.034555   -0.000000   -0.749135
      3          1           0       -0.165124    0.885013    1.200801
      4          1           0       -0.165124   -0.885013    1.200801
      5          1           0       -0.100257    0.924483   -1.304747
      6          1           0       -0.100257   -0.924483   -1.304747
      7          1           0        1.322324    0.000000    0.916841
 ---------------------------------------------------------------------
                    Distance matrix (angstroms):
                    1          2          3          4          5
     1  C    0.000000
     2  C    1.483005   0.000000
     3  H    1.092241   2.145355   0.000000
     4  H    1.092241   2.145355   1.770026   0.000000
     5  H    2.241048   1.080597   2.506698   3.091319   0.000000
     6  H    2.241048   1.080597   3.091319   2.506698   1.848966
     7  H    1.099412   2.148627   1.753962   1.753962   2.795327
                    6          7
     6  H    0.000000
     7  H    2.795327   0.000000
 Stoichiometry    C2H5(2)
 Framework group  CS[SG(C2H),X(H4)]
 Deg. of freedom     9
 Full point group                 CS      NOp   2
 Largest Abelian subgroup         CS      NOp   2
 Largest concise Abelian subgroup CS      NOp   2
                         Standard orientation:                         
 ---------------------------------------------------------------------
 Center     Atomic      Atomic             Coordinates (Angstroms)
 Number     Number       Type             X           Y           Z
 ---------------------------------------------------------------------
      1          6           0       -0.006682   -0.691569   -0.000000
      2          6           0       -0.006682    0.791437    0.000000
      3          1           0       -0.499881   -1.099609    0.885013
      4          1           0       -0.499881   -1.099609   -0.885013
      5          1           0        0.032761    1.349527    0.924483
      6          1           0        0.032761    1.349527   -0.924483
      7          1           0        1.014429   -1.099046   -0.000000
 ---------------------------------------------------------------------
 Rotational constants (GHZ):         132.1481175          25.2671194          22.1851628
 Standard basis: EPR-III (5D, 7F)
 There are    95 symmetry adapted cartesian basis functions of A'  symmetry.
 There are    50 symmetry adapted cartesian basis functions of A"  symmetry.
 There are    87 symmetry adapted basis functions of A'  symmetry.
 There are    48 symmetry adapted basis functions of A"  symmetry.
   135 basis functions,   181 primitive gaussians,   145 cartesian basis functions
     9 alpha electrons        8 beta electrons
       nuclear repulsion energy        37.0270855959 Hartrees.
 NAtoms=    7 NActive=    7 NUniq=    5 SFac= 1.96D+00 NAtFMM=   60 NAOKFM=F Big=F
 Integral buffers will be    131072 words long.
 Raffenetti 2 integral format.
 Two-electron integral symmetry is turned on.
 One-electron integrals computed using PRISM.
 PrsmSu:  requested number of processors reduced to:  13 ShMem   1 Linda.
 NBasis=   135 RedAO= T EigKep=  5.10D-05  NBF=    87    48
 NBsUse=   135 1.00D-06 EigRej= -1.00D+00 NBFU=    87    48
 Initial guess from the checkpoint file:  "/scratch/Gau-30061.chk"
 B after Tr=     0.000000   -0.000000   -0.000000
         Rot=    0.999999   -0.000000    0.000000    0.001724 Ang=   0.20 deg.
 Initial guess orbital symmetries:
 Alpha Orbitals:
       Occupied  (A') (A') (A') (A') (A") (A') (A') (A") (A')
       Virtual   (A') (A') (A") (A') (A") (A') (A') (A') (A") (A')
                 (A') (A') (A") (A') (A") (A') (A') (A") (A') (A')
                 (A") (A') (A') (A") (A') (A') (A') (A') (A") (A")
                 (A") (A') (A') (A") (A') (A') (A") (A") (A') (A')
                 (A") (A') (A') (A") (A') (A') (A") (A') (A') (A')
                 (A") (A') (A") (A') (A') (A") (A') (A") (A') (A')
                 (A") (A') (A") (A') (A') (A') (A') (A") (A") (A')
                 (A") (A') (A") (A') (A") (A") (A') (A') (A") (A')
                 (A') (A') (A") (A") (A') (A") (A') (A') (A') (A')
                 (A") (A') (A') (A') (A") (A") (A') (A") (A") (A')
                 (A') (A") (A') (A") (A') (A') (A") (A') (A") (A')
                 (A') (A') (A") (A') (A") (A') (A') (A') (A') (A')
                 (A") (A') (A") (A') (A') (A')
 Beta  Orbitals:
       Occupied  (A') (A') (A') (A') (A") (A') (A') (A")
       Virtual   (A') (A') (A') (A") (A') (A") (A') (A') (A') (A")
                 (A') (A') (A') (A") (A') (A") (A') (A') (A") (A')
                 (A") (A') (A') (A') (A") (A') (A') (A') (A') (A")
                 (A") (A") (A') (A') (A") (A') (A') (A") (A") (A')
                 (A") (A') (A') (A') (A") (A') (A') (A") (A') (A')
                 (A') (A") (A') (A") (A') (A') (A") (A') (A") (A')
                 (A') (A") (A') (A") (A') (A') (A') (A') (A") (A")
                 (A') (A") (A") (A') (A') (A") (A") (A') (A') (A")
                 (A') (A') (A") (A') (A") (A') (A") (A') (A') (A')
                 (A') (A") (A') (A') (A") (A') (A") (A') (A") (A")
                 (A') (A') (A") (A') (A") (A') (A') (A") (A') (A")
                 (A') (A') (A') (A") (A') (A") (A') (A') (A') (A')
                 (A') (A") (A') (A") (A') (A') (A')
 Initial guess <Sx>= 0.0000 <Sy>= 0.0000 <Sz>= 0.5000 <S**2>= 0.7541 S= 0.5020
 ExpMin= 3.26D-02 ExpMax= 1.64D+04 ExpMxC= 2.43D+03 IAcc=3 IRadAn=         5 AccDes= 0.00D+00
 Harris functional with IExCor=  402 and IRadAn=       5 diagonalized for initial guess.
 HarFok:  IExCor=  402 AccDes= 0.00D+00 IRadAn=         5 IDoV= 1 UseB2=F ITyADJ=14
 ICtDFT=  3500011 ScaDFX=  1.000000  1.000000  1.000000  1.000000
 FoFCou: FMM=F IPFlag=           0 FMFlag=      100000 FMFlg1=           0
         NFxFlg=           0 DoJE=T BraDBF=F KetDBF=T FulRan=T
         wScrn=  0.000000 ICntrl=       500 IOpCl=  0 I1Cent=   200000004 NGrid=           0
         NMat0=    1 NMatS0=      1 NMatT0=    0 NMatD0=    1 NMtDS0=    0 NMtDT0=    0
 Petite list used in FoFCou.
 Keep R1 and R2 ints in memory in symmetry-blocked form, NReq=63753385.
 Requested convergence on RMS density matrix=1.00D-08 within 128 cycles.
 Requested convergence on MAX density matrix=1.00D-06.
 Requested convergence on             energy=1.00D-06.
 No special actions if energy rises.
 SCF Done:  E(UB3LYP) =  -79.1968913931     A.U. after   10 cycles
            NFock= 10  Conv=0.41D-08     -V/T= 2.0057
 <Sx>= 0.0000 <Sy>= 0.0000 <Sz>= 0.5000 <S**2>= 0.7540 S= 0.5020
 <L.S>= 0.000000000000E+00
 Annihilation of the first spin contaminant:
 S**2 before annihilation     0.7540,   after     0.7500
 PrsmSu:  requested number of processors reduced to:  13 ShMem   1 Linda.
 Calling FoFJK, ICntrl=      2127 FMM=F ISym2X=1 I1Cent= 0 IOpClX= 1 NMat=1 NMatS=1 NMatT=0.
 ***** Axes restored to original set *****
 -------------------------------------------------------------------
 Center     Atomic                   Forces (Hartrees/Bohr)
 Number     Number              X              Y              Z
 -------------------------------------------------------------------
      1        6          -0.000174627   -0.000000000    0.000340996
      2        6          -0.001089925   -0.000000000   -0.000440894
      3        1           0.000013265   -0.000031401   -0.000095366
      4        1           0.000013265    0.000031401   -0.000095366
      5        1           0.000297401    0.000002769   -0.000009211
      6        1           0.000297401   -0.000002769   -0.000009211
      7        1           0.000643219    0.000000000    0.000309052
 -------------------------------------------------------------------
 Cartesian Forces:  Max     0.001089925 RMS     0.000326302

 GradGradGradGradGradGradGradGradGradGradGradGradGradGradGradGradGradGrad
 Berny optimization.
 Using GEDIIS/GDIIS optimizer.
 FormGI is forming the generalized inverse of G from B-inverse, IUseBI=4.
 Internal  Forces:  Max     0.000690368 RMS     0.000230872
 Search for a local minimum.
 Step number   5 out of a maximum of  100
 All quantities printed in internal units (Hartrees-Bohrs-Radians)
 Mixed Optimization -- En-DIIS/RFO-DIIS
 Update second derivatives using D2CorX and points    3    4    5
 DE= -2.34D-04 DEPred=-2.45D-04 R= 9.53D-01
 TightC=F SS=  1.41D+00  RLast= 6.55D-02 DXNew= 1.4270D+00 1.9655D-01
 Trust test= 9.53D-01 RLast= 6.55D-02 DXMaxT set to 8.49D-01
 ITU=  1  1  1  1  0
 Use linear search instead of GDIIS.
     Eigenvalues ---    0.02610   0.02949   0.05056   0.08401   0.14495
     Eigenvalues ---    0.15841   0.16000   0.16000   0.16035   0.32767
     Eigenvalues ---    0.35422   0.35422   0.35491   0.36031   0.59987
 RFO step:  Lambda=-9.27377916D-06 EMin= 2.61031518D-02
 Quartic linear search produced a step of -0.00828.
 Iteration  1 RMS(Cart)=  0.00158936 RMS(Int)=  0.00000944
 Iteration  2 RMS(Cart)=  0.00000639 RMS(Int)=  0.00000736
 Iteration  3 RMS(Cart)=  0.00000000 RMS(Int)=  0.00000736
 ClnCor:  largest displacement from symmetrization is 1.04D-13 for atom     6.
 Variable       Old X    -DE/DX   Delta X   Delta X   Delta X     New X
                                 (Linear)    (Quad)   (Total)
    R1        2.80247   0.00054  -0.00008   0.00147   0.00139   2.80386
    R2        2.06404  -0.00007   0.00001  -0.00016  -0.00015   2.06388
    R3        2.06404  -0.00007   0.00001  -0.00016  -0.00015   2.06388
    R4        2.07759   0.00069   0.00029   0.00085   0.00114   2.07873
    R5        2.04203  -0.00001  -0.00000   0.00000   0.00000   2.04203
    R6        2.04203  -0.00001  -0.00000   0.00000   0.00000   2.04203
    A1        1.95366  -0.00013   0.00007  -0.00208  -0.00201   1.95165
    A2        1.95366  -0.00013   0.00007  -0.00208  -0.00201   1.95165
    A3        1.95049   0.00031   0.00013   0.00224   0.00238   1.95286
    A4        1.88924   0.00008  -0.00002  -0.00015  -0.00018   1.88905
    A5        1.85556  -0.00006  -0.00014   0.00117   0.00103   1.85658
    A6        1.85556  -0.00006  -0.00014   0.00117   0.00103   1.85658
    A7        2.11351  -0.00004   0.00001  -0.00058  -0.00059   2.11293
    A8        2.11351  -0.00004   0.00001  -0.00058  -0.00059   2.11293
    A9        2.05315   0.00006  -0.00001   0.00029   0.00025   2.05340
    D1        0.55105   0.00022  -0.00018   0.00780   0.00762   0.55867
    D2       -2.67582  -0.00013   0.00011  -0.00460  -0.00449  -2.68031
    D3        2.67582   0.00013  -0.00011   0.00460   0.00449   2.68031
    D4       -0.55105  -0.00022   0.00018  -0.00780  -0.00762  -0.55867
    D5       -1.52816   0.00017  -0.00015   0.00620   0.00605  -1.52210
    D6        1.52816  -0.00017   0.00015  -0.00620  -0.00605   1.52210
         Item               Value     Threshold  Converged?
 Maximum Force            0.000690     0.000015     NO 
 RMS     Force            0.000231     0.000010     NO 
 Maximum Displacement     0.006069     0.000060     NO 
 RMS     Displacement     0.001590     0.000040     NO 
 Predicted change in Energy=-4.622504D-06
 GradGradGradGradGradGradGradGradGradGradGradGradGradGradGradGradGradGrad

                          Input orientation:                          
 ---------------------------------------------------------------------
 Center     Atomic      Atomic             Coordinates (Angstroms)
 Number     Number       Type             X           Y           Z
[...]
 ! R2    R(1,3)                  1.0921         -DE/DX =    0.0                 !
 ! R3    R(1,4)                  1.0921         -DE/DX =    0.0                 !
 ! R4    R(1,7)                  1.1006         -DE/DX =    0.0                 !
 ! R5    R(2,5)                  1.0807         -DE/DX =    0.0                 !
 ! R6    R(2,6)                  1.0807         -DE/DX =    0.0                 !
 ! A1    A(2,1,3)              111.8723         -DE/DX =    0.0                 !
 ! A2    A(2,1,4)              111.8723         -DE/DX =    0.0                 !
 ! A3    A(2,1,7)              111.8516         -DE/DX =    0.0                 !
 ! A4    A(3,1,4)              108.2671         -DE/DX =    0.0                 !
 ! A5    A(3,1,7)              106.3233         -DE/DX =    0.0                 !
 ! A6    A(4,1,7)              106.3233         -DE/DX =    0.0                 !
 ! A7    A(1,2,5)              120.9892         -DE/DX =    0.0                 !
 ! A8    A(1,2,6)              120.9892         -DE/DX =    0.0                 !
 ! A9    A(5,2,6)              117.6084         -DE/DX =    0.0                 !
 ! D1    D(3,1,2,5)             32.9394         -DE/DX =    0.0                 !
 ! D2    D(3,1,2,6)           -154.615          -DE/DX =    0.0                 !
 ! D3    D(4,1,2,5)            154.615          -DE/DX =    0.0                 !
 ! D4    D(4,1,2,6)            -32.9394         -DE/DX =    0.0                 !
 ! D5    D(7,1,2,5)            -86.2228         -DE/DX =    0.0                 !
 ! D6    D(7,1,2,6)             86.2228         -DE/DX =    0.0                 !
 --------------------------------------------------------------------------------
 GradGradGradGradGradGradGradGradGradGradGradGradGradGradGradGradGradGrad

                          Input orientation:                          
 ---------------------------------------------------------------------
 Center     Atomic      Atomic             Coordinates (Angstroms)
 Number     Number       Type             X           Y           Z
 ---------------------------------------------------------------------
      1          6           0        0.241132    0.000000    0.708084
      2          6           0       -0.046280   -0.000000   -0.747689
      3          1           0       -0.164565    0.885014    1.202880
      4          1           0       -0.164565   -0.885014    1.202880
      5          1           0       -0.094178    0.924421   -1.305393
      6          1           0       -0.094178   -0.924421   -1.305393
      7          1           0        1.322635    0.000000    0.912110
 ---------------------------------------------------------------------
                    Distance matrix (angstroms):
                    1          2          3          4          5
     1  C    0.000000
     2  C    1.483873   0.000000
     3  H    1.092092   2.145218   0.000000
     4  H    1.092092   2.145218   1.770029   0.000000
     5  H    2.240775   1.080686   2.509570   3.093613   0.000000
     6  H    2.240775   1.080686   3.093613   2.509570   1.848842
     7  H    1.100580   2.151479   1.754868   1.754868   2.789128
                    6          7
     6  H    0.000000
     7  H    2.789128   0.000000
 Stoichiometry    C2H5(2)
 Framework group  CS[SG(C2H),X(H4)]
 Deg. of freedom     9
 Full point group                 CS      NOp   2
 Largest Abelian subgroup         CS      NOp   2
 Largest concise Abelian subgroup CS      NOp   2
                         Standard orientation:                         
 ---------------------------------------------------------------------
 Center     Atomic      Atomic             Coordinates (Angstroms)
 Number     Number       Type             X           Y           Z
 ---------------------------------------------------------------------
      1          6           0       -0.009168   -0.691794    0.000000
      2          6           0       -0.009168    0.792080   -0.000000
      3          1           0       -0.503020   -1.098640    0.885014
      4          1           0       -0.503020   -1.098640   -0.885014
      5          1           0        0.051863    1.348499    0.924421
      6          1           0        0.051863    1.348499   -0.924421
      7          1           0        1.012336   -1.101433    0.000000
 ---------------------------------------------------------------------
 Rotational constants (GHZ):         132.1124681          25.2491442          22.1727480

 **********************************************************************

            Population analysis using the SCF Density.

 **********************************************************************

 Orbital symmetries:
 Alpha Orbitals:
       Occupied  (A') (A') (A') (A') (A") (A') (A') (A") (A')
       Virtual   (A') (A') (A") (A') (A") (A') (A') (A') (A") (A')
                 (A') (A') (A") (A') (A") (A') (A') (A") (A') (A')
                 (A") (A') (A') (A") (A') (A') (A') (A') (A") (A")
                 (A") (A') (A') (A") (A') (A') (A") (A") (A') (A')
                 (A") (A') (A') (A") (A') (A') (A") (A') (A') (A')
                 (A") (A') (A") (A') (A") (A') (A') (A") (A') (A')
                 (A") (A') (A") (A') (A') (A') (A') (A") (A") (A')
                 (A") (A') (A") (A') (A") (A") (A') (A') (A") (A')
                 (A') (A") (A') (A") (A') (A") (A') (A') (A') (A')
                 (A") (A') (A') (A') (A") (A") (A') (A") (A") (A')
                 (A') (A") (A') (A") (A') (A') (A") (A') (A") (A')
                 (A') (A') (A") (A') (A") (A') (A') (A') (A') (A')
                 (A") (A') (A") (A') (A') (A')
 Beta  Orbitals:
       Occupied  (A') (A') (A') (A') (A") (A') (A') (A")
       Virtual   (A') (A') (A') (A") (A') (A") (A') (A') (A') (A")
                 (A') (A') (A') (A") (A') (A") (A') (A') (A") (A')
                 (A") (A') (A') (A') (A") (A') (A') (A') (A') (A")
                 (A") (A") (A') (A') (A") (A') (A') (A") (A") (A')
                 (A") (A') (A') (A') (A") (A') (A') (A") (A') (A')
                 (A') (A") (A') (A") (A') (A") (A') (A') (A") (A')
                 (A') (A") (A') (A") (A') (A') (A') (A') (A") (A")
                 (A') (A") (A") (A') (A') (A") (A") (A') (A') (A")
                 (A') (A') (A") (A') (A") (A') (A") (A') (A') (A')
                 (A') (A") (A') (A') (A") (A') (A") (A') (A") (A")
                 (A') (A') (A") (A') (A") (A') (A') (A") (A') (A")
                 (A') (A') (A') (A") (A') (A") (A') (A') (A') (A')
                 (A') (A") (A') (A") (A') (A') (A')
 The electronic state is 2-A'.
 Alpha  occ. eigenvalues --  -10.17993 -10.17044  -0.76100  -0.61273  -0.45598
 Alpha  occ. eigenvalues --   -0.41853  -0.39772  -0.36237  -0.20709
 Alpha virt. eigenvalues --   -0.00260   0.01740   0.02796   0.03401   0.05837
 Alpha virt. eigenvalues --    0.06037   0.06731   0.07760   0.08860   0.10758
 Alpha virt. eigenvalues --    0.11429   0.12207   0.12778   0.19407   0.22542
 Alpha virt. eigenvalues --    0.23156   0.24681   0.26229   0.27399   0.28879
 Alpha virt. eigenvalues --    0.29782   0.30476   0.34632   0.35656   0.39082
 Alpha virt. eigenvalues --    0.42755   0.46580   0.54592   0.57477   0.67926
 Alpha virt. eigenvalues --    0.73030   0.74021   0.76666   0.80874   0.83574
 Alpha virt. eigenvalues --    0.85133   0.88767   0.90091   0.93723   0.94064
 Alpha virt. eigenvalues --    0.94290   0.94955   0.99186   1.02578   1.03685
 Alpha virt. eigenvalues --    1.07230   1.13351   1.15161   1.28675   1.29080
 Alpha virt. eigenvalues --    1.36258   1.37454   1.39085   1.43292   1.44575
 Alpha virt. eigenvalues --    1.45573   1.51010   1.60350   1.67285   1.70987
 Alpha virt. eigenvalues --    1.75947   1.77723   1.89945   1.91531   2.15016
 Alpha virt. eigenvalues --    2.65313   2.72897   2.78489   2.81206   2.88247
 Alpha virt. eigenvalues --    2.91340   2.96495   2.99086   3.01461   3.03546
 Alpha virt. eigenvalues --    3.08278   3.12706   3.17795   3.21781   3.30830
 Alpha virt. eigenvalues --    3.31299   3.34939   3.34964   3.38335   3.54264
 Alpha virt. eigenvalues --    3.64111   3.72437   3.82765   3.90122   3.94389
 Alpha virt. eigenvalues --    3.98085   4.02702   4.07444   4.08489   4.08957
 Alpha virt. eigenvalues --    4.09784   4.14381   4.22405   4.27247   4.31556
 Alpha virt. eigenvalues --    4.42450   4.47821   4.52474   4.94238   5.13888
 Alpha virt. eigenvalues --    5.27346   5.42014   5.52800   5.58809   5.67190
 Alpha virt. eigenvalues --    5.75830   6.05003   6.09845   6.19250   6.21779
 Alpha virt. eigenvalues --    7.73399   8.13629  29.08191  29.53300  37.19584
 Alpha virt. eigenvalues --   37.24252  37.25381  37.36010  37.43980 133.53086
 Alpha virt. eigenvalues --  134.01396
  Beta  occ. eigenvalues --  -10.17124 -10.16580  -0.74463  -0.58909  -0.44992
  Beta  occ. eigenvalues --   -0.40342  -0.38997  -0.35793
  Beta virt. eigenvalues --   -0.06034  -0.00191   0.01898   0.02785   0.03631
  Beta virt. eigenvalues --    0.05810   0.06008   0.07212   0.08375   0.08867
  Beta virt. eigenvalues --    0.10859   0.11586   0.12478   0.12868   0.19708
  Beta virt. eigenvalues --    0.22596   0.23482   0.24916   0.26361   0.28563
  Beta virt. eigenvalues --    0.29870   0.30847   0.32786   0.35380   0.36075
  Beta virt. eigenvalues --    0.39332   0.43524   0.47111   0.55804   0.59816
  Beta virt. eigenvalues --    0.68081   0.73118   0.74522   0.77881   0.80925
  Beta virt. eigenvalues --    0.84243   0.86603   0.89056   0.90247   0.94097
  Beta virt. eigenvalues --    0.94448   0.94671   0.95894   1.00423   1.03358
  Beta virt. eigenvalues --    1.05765   1.12266   1.14315   1.16622   1.29117
  Beta virt. eigenvalues --    1.30599   1.37333   1.37959   1.39309   1.44167
  Beta virt. eigenvalues --    1.45816   1.46636   1.51858   1.60764   1.67664
  Beta virt. eigenvalues --    1.71819   1.76257   1.78051   1.90749   1.92382
  Beta virt. eigenvalues --    2.15969   2.67780   2.74665   2.78671   2.84178
  Beta virt. eigenvalues --    2.91150   2.91667   3.00136   3.00179   3.03727
  Beta virt. eigenvalues --    3.05153   3.08561   3.13750   3.21115   3.24483
  Beta virt. eigenvalues --    3.31984   3.32411   3.37814   3.38141   3.40829
  Beta virt. eigenvalues --    3.57195   3.64138   3.78646   3.82979   3.90879
  Beta virt. eigenvalues --    3.95311   3.98474   4.03184   4.08001   4.09337
  Beta virt. eigenvalues --    4.10384   4.11057   4.14699   4.23165   4.27624
  Beta virt. eigenvalues --    4.32542   4.43130   4.48376   4.54347   4.94413
  Beta virt. eigenvalues --    5.14269   5.29251   5.41885   5.53768   5.59140
  Beta virt. eigenvalues --    5.67689   5.75968   6.05917   6.10126   6.19583
  Beta virt. eigenvalues --    6.22090   7.75375   8.14967  29.09575  29.54381
  Beta virt. eigenvalues --   37.19903  37.23203  37.26864  37.36630  37.44606
  Beta virt. eigenvalues --  133.53484 134.01704
          Condensed to atoms (all electrons):
               1          2          3          4          5          6
     1  C    4.792007   0.309114   0.413755   0.413755  -0.040174  -0.040174
     2  C    0.309114   5.327529  -0.041269  -0.041269   0.415575   0.415575
     3  H    0.413755  -0.041269   0.583999  -0.022295  -0.009315   0.010022
     4  H    0.413755  -0.041269  -0.022295   0.583999   0.010022  -0.009315
     5  H   -0.040174   0.415575  -0.009315   0.010022   0.532407  -0.036328
     6  H   -0.040174   0.415575   0.010022  -0.009315  -0.036328   0.532407
     7  H    0.394447  -0.051104  -0.041719  -0.041719   0.000111   0.000111
               7
     1  C    0.394447
     2  C   -0.051104
     3  H   -0.041719
     4  H   -0.041719
     5  H    0.000111
     6  H    0.000111
     7  H    0.632042
          Atomic-Atomic Spin Densities.
               1          2          3          4          5          6
     1  C   -0.057804  -0.055106   0.008719   0.008719  -0.000521  -0.000521
     2  C   -0.055106   1.171823  -0.011246  -0.011246   0.005348   0.005348
     3  H    0.008719  -0.011246   0.029469   0.010012   0.001111  -0.000300
     4  H    0.008719  -0.011246   0.010012   0.029469  -0.000300   0.001111
     5  H   -0.000521   0.005348   0.001111  -0.000300  -0.043577   0.003172
     6  H   -0.000521   0.005348  -0.000300   0.001111   0.003172  -0.043577
     7  H    0.017159  -0.046857  -0.023062  -0.023062  -0.000906  -0.000906
               7
     1  C    0.017159
     2  C   -0.046857
     3  H   -0.023062
     4  H   -0.023062
     5  H   -0.000906
     6  H   -0.000906
     7  H    0.140867
 Mulliken charges and spin densities:
               1          2
     1  C   -0.242730  -0.079355
     2  C   -0.334150   1.058064
     3  H    0.106822   0.014703
     4  H    0.106822   0.014703
     5  H    0.127702  -0.035674
     6  H    0.127702  -0.035674
     7  H    0.107832   0.063233
 Sum of Mulliken charges =  -0.00000   1.00000
 Mulliken charges and spin densities with hydrogens summed into heavy atoms:
               1          2
     1  C    0.078745   0.013284
     2  C   -0.078745   0.986716
 Electronic spatial extent (au):  <R**2>=             99.4524
 Charge=              0.0000 electrons
 Dipole moment (field-independent basis, Debye):
    X=              0.1204    Y=             -0.3077    Z=              0.0000  Tot=              0.3304
 Quadrupole moment (field-independent basis, Debye-Ang):
   XX=            -15.4888   YY=            -14.6142   ZZ=            -13.7826
   XY=              0.1650   XZ=             -0.0000   YZ=             -0.0000
 Traceless Quadrupole moment (field-independent basis, Debye-Ang):
   XX=             -0.8603   YY=              0.0143   ZZ=              0.8459
   XY=              0.1650   XZ=             -0.0000   YZ=             -0.0000
 Octapole moment (field-independent basis, Debye-Ang**2):
  XXX=              0.7325  YYY=             -0.2944  ZZZ=             -0.0000  XYY=              0.2127
  XXY=             -1.8124  XXZ=             -0.0000  XZZ=             -0.4415  YZZ=              0.4198
  YYZ=             -0.0000  XYZ=             -0.0000
 Hexadecapole moment (field-independent basis, Debye-Ang**3):
 XXXX=            -26.1443 YYYY=            -89.1421 ZZZZ=            -29.6837 XXXY=             -0.5981
 XXXZ=              0.0000 YYYX=              0.2860 YYYZ=             -0.0000 ZZZX=             -0.0000
 ZZZY=              0.0000 XXYY=            -20.1280 XXZZ=             -9.6463 YYZZ=            -17.7419
 XXYZ=              0.0000 YYXZ=              0.0000 ZZXY=              0.7475
 N-N= 3.701520547947D+01 E-N=-2.569409417472D+02  KE= 7.874651210426D+01
 Symmetry A'   KE= 7.473719637645D+01
 Symmetry A"   KE= 4.009315727802D+00
 Symmetry A'   SP= 1.000000000000D+00
 Symmetry A"   SP= 2.600592318396D-15
                          Isotropic Fermi Contact Couplings
        Atom                 a.u.       MegaHertz       Gauss      10(-4) cm-1
     1  C(13)             -0.02890     -32.49224     -11.59404     -10.83824
     2  C(13)              0.07695      86.51059      30.86913      28.85683
     3  H(1)               0.00901      40.27562      14.37134      13.43450
     4  H(1)               0.00901      40.27562      14.37134      13.43450
     5  H(1)              -0.01403     -62.72651     -22.38238     -20.92331
     6  H(1)              -0.01403     -62.72651     -22.38238     -20.92331
     7  H(1)               0.03648     163.07409      58.18889      54.39566
 --------------------------------------------------------
       Center         ----  Spin Dipole Couplings  ----
                      3XX-RR        3YY-RR        3ZZ-RR
 --------------------------------------------------------
     1   Atom        0.008277      0.011725     -0.020002
     2   Atom        1.178583     -0.591286     -0.587297
     3   Atom       -0.008069      0.011499     -0.003430
     4   Atom       -0.008069      0.011499     -0.003430
     5   Atom        0.003336     -0.036365      0.033029
     6   Atom        0.003336     -0.036365      0.033029
     7   Atom       -0.001676      0.012599     -0.010923
 --------------------------------------------------------
                        XY            XZ            YZ
 --------------------------------------------------------
     1   Atom       -0.003171     -0.000000      0.000000
     2   Atom       -0.069263      0.000000      0.000000
     3   Atom        0.003942     -0.001289     -0.009817
     4   Atom        0.003942      0.001289      0.009817
     5   Atom        0.000203      0.005768      0.062362
     6   Atom        0.000203     -0.005768     -0.062362
     7   Atom       -0.009893      0.000000     -0.000000
 --------------------------------------------------------


 ---------------------------------------------------------------------------------
              Anisotropic Spin Dipole Couplings in Principal Axis System
 ---------------------------------------------------------------------------------

       Atom             a.u.   MegaHertz   Gauss  10(-4) cm-1        Axes

              Baa    -0.0200    -2.684    -0.958    -0.895  0.0000 -0.0000  1.0000
     1 C(13)  Bbb     0.0064     0.858     0.306     0.286  0.8596  0.5110  0.0000
              Bcc     0.0136     1.826     0.652     0.609 -0.5110  0.8596  0.0000
 
              Baa    -0.5940   -79.708   -28.442   -26.588  0.0390  0.9992 -0.0000
     2 C(13)  Bbb    -0.5873   -78.810   -28.121   -26.288  0.0000  0.0000  1.0000
              Bcc     1.1813   158.518    56.563    52.876  0.9992 -0.0390  0.0000
 
              Baa    -0.0091    -4.881    -1.742    -1.628  0.8116 -0.3699 -0.4521
     3 H(1)   Bbb    -0.0079    -4.210    -1.502    -1.404  0.5614  0.2801  0.7787
              Bcc     0.0170     9.091     3.244     3.032  0.1614  0.8858 -0.4350
 
              Baa    -0.0091    -4.881    -1.742    -1.628  0.8116 -0.3699  0.4521
     4 H(1)   Bbb    -0.0079    -4.210    -1.502    -1.404 -0.5614 -0.2801  0.7787
              Bcc     0.0170     9.091     3.244     3.032  0.1614  0.8858  0.4350
 
              Baa    -0.0731   -39.020   -13.923   -13.016  0.0360  0.8608 -0.5076
     5 H(1)   Bbb     0.0030     1.627     0.581     0.543  0.9965 -0.0695 -0.0472
              Bcc     0.0701    37.393    13.343    12.473  0.0759  0.5041  0.8603
 
              Baa    -0.0731   -39.020   -13.923   -13.016  0.0360  0.8608  0.5076
     6 H(1)   Bbb     0.0030     1.627     0.581     0.543  0.9965 -0.0695  0.0472
              Bcc     0.0701    37.393    13.343    12.473 -0.0759 -0.5041  0.8603
 
              Baa    -0.0109    -5.828    -2.080    -1.944 -0.0000 -0.0000  1.0000
     7 H(1)   Bbb    -0.0067    -3.595    -1.283    -1.199  0.8902  0.4555  0.0000
              Bcc     0.0177     9.423     3.362     3.143 -0.4555  0.8902 -0.0000
 

 ---------------------------------------------------------------------------------

 1\1\GINC-CN650\FOpt\UB3LYP\EPR-III\C2H5(2)\SCARF978\14-Mar-2021\0\\#N 
 B3LYP/EPR-III opt(Tight, MaxCyc=100)\\Gaussian input prepared by ASE\\
 0,2\C,0.2411318681,0.,0.7080837368\C,-0.0462801148,0.,-0.7476888858\H,
 -0.1645653607,0.8850143101,1.2028801665\H,-0.1645653607,-0.8850143101,
 1.2028801665\H,-0.0941779829,0.9244209015,-1.3053927803\H,-0.094177982
 9,-0.9244209015,-1.3053927803\H,1.322634934,0.,0.9121103767\\Version=E
 S64L-G16RevB.01\State=2-A'\HF=-79.1969053\S2=0.753985\S2-1=0.\S2A=0.75
 0011\RMSD=8.159e-09\RMSF=6.943e-07\Dipole=0.0699098,0.,0.1095797\Quadr
 upole=-0.6618144,0.6289316,0.0328829,0.,0.0100655,0.\PG=CS [SG(C2H1),X
 (H4)]\\@


  THE LARGE PRINT GIVETH,
  AND THE SMALL PRINT TAKETH AWAY.

                     -- TOM WAITS
 Job cpu time:       0 days  0 hours 11 minutes  0.5 seconds.
 Elapsed time:       0 days  0 hours  0 minutes 48.4 seconds.
 File lengths (MBytes):  RWF=     18 Int=      0 D2E=      0 Chk=      3 Scr=      1
 Normal termination of Gaussian 16 at Sun Mar 14 11:58:09 2021.
