 +-------------------------------------------------+
 |                                                 |
 |      CCC   AA    SSS  TTTTT  EEEEE  PPPP        |
 |     C     A  A  S       T    E      P   P       |
 |     C     AAAA   SS     T    EEE    PPPP        |
 |     C     A  A     S    T    E      P           |
 |      CCC  A  A  SSS     T    EEEEE  P           |
 |                                                 |
 +-------------------------------------------------+
 |                                                 |
 | Welcome to Academic Release CASTEP version 19.11|          
 | Ab Initio Total Energy Program                  |
 |                                                 |
 | Authors:                                        |
 | M. Segall, M. Probert, C. Pickard, P. Hasnip,   |
 | S. Clark, K. Refson, J. R. Yates, M. Payne      |
 |                                                 |
 | Contributors:                                   |
 | P. Lindan, P. Haynes, J. White, V. Milman,      |
 | N. Govind, M. Gibson, P. Tulip, V. Cocula,      |
 | B. Montanari, D. Quigley, M. Glover,            |
 | L. Bernasconi, A. Perlov, M. Plummer,           |
 | E. McNellis, J. Meyer, J. Gale, D. Jochym       |
 | J. Aarons, B. Walker, R. Gillen, D. Jones       |
 | T. Green, I. J. Bush, C. J. Armstrong,          |
 | E. J. Higgins, E. L. Brown, M. S. McFly,        |
 | J. Wilkins, B-C. Shih, P. J. P. Byrne           |
 |                                                 |
 | Copyright (c) 2000 - 2018                       |
 |                                                 |
 |     Distributed under the terms of an           |
 |     Agreement between the United Kingdom        |
 |     Car-Parrinello (UKCP) Consortium,           |
 |     Daresbury Laboratory and Accelrys, Inc.     |
 |                                                 |
 | Please cite                                     |
 |                                                 |
 |     "First principles methods using CASTEP"     |
 |                                                 |
 |         Zeitschrift fuer Kristallographie       |
 |           220(5-6) pp. 567-570 (2005)           |
 |                                                 |
 | S. J. Clark, M. D. Segall, C. J. Pickard,       |
 | P. J. Hasnip, M. J. Probert, K. Refson,         |
 | M. C. Payne                                     |
 |                                                 |
 |       in all publications arising from          |
 |              your use of CASTEP                 |
 |                                                 |
 +-------------------------------------------------+
 |                                                 |
 |              http://www.castep.org              |
 |                                                 |
 +-------------------------------------------------+
 
 
 
 Compiled for linux_x86_64_ifort18 on Fri, 05 Jul 2019 15:43:56 +0100
 from code version 
 0a9e5daac2f4+ Castep191_branch Wed, 03 Jul 2019 08:43:28 +0000
 Compiler: Intel Fortran 18.0.3.222; Optimisation: fast
 MATHLIBS: Intel MKL(2018.0.3) (LAPACK version 3.7.0)
 FFT Lib : default
 Fundamental constants values: CODATA 2014
 
 Run started: Tue, 17 Nov 2020 15:10:25 +0000
 
 Atomic calculation performed for Si: 1s2 2s2 2p6 3s2 3p2
 
 Converged in 55 iterations to an ae energy of -7859.183 eV
 
   ============================================================                
   | Pseudopotential Report - Date of generation 17-11-2020   |                
   ------------------------------------------------------------                
   | Element: Si Ionic charge:  4.00 Level of theory: LDA     |                
   | Atomic Solver: Koelling-Harmon                           |                
   |                                                          |                
   |               Reference Electronic Structure             |                
   |         Orbital         Occupation         Energy        |                
   |            3s              2.000           -0.400        |                
   |            3p              2.000           -0.153        |                
   |                                                          |                
   |                 Pseudopotential Definition               |                
   |        Beta     l      e      Rc     scheme   norm       |                
   |          1      0   -0.400   1.797     qc      0         |                
   |          2      0    0.250   1.797     qc      0         |                
   |          3      1   -0.153   1.797     qc      0         |                
   |          4      1    0.250   1.797     qc      0         |                
   |          5      2    0.000   1.797     qc      0         |                
   |          6      2    0.250   1.797     qc      0         |                
   |         loc     3    0.000   1.797     pn      0         |                
   |                                                          |                
   | Augmentation charge Rinner = 1.255                       |                
   | Partial core correction Rc = 1.255                       |                
   ------------------------------------------------------------                
   | "3|1.8|5|6|7|30:31:32"                                   |                
   ------------------------------------------------------------                
   |      Author: Chris J. Pickard, Cambridge University      |                
   ============================================================                
 
 Atomic calculation performed for H:mu: 1s1
 
 Converged in 41 iterations to an ae energy of -12.134 eV
 
   ============================================================                
   | Pseudopotential Report - Date of generation 17-11-2020   |                
   ------------------------------------------------------------                
   | Element: H Ionic charge:  1.00 Level of theory: LDA      |                
   | Atomic Solver: Koelling-Harmon                           |                
   |                                                          |                
   |               Reference Electronic Structure             |                
   |         Orbital         Occupation         Energy        |                
   |            1s              1.000           -0.234        |                
   |                                                          |                
   |                 Pseudopotential Definition               |                
   |        Beta     l      e      Rc     scheme   norm       |                
   |          1      0   -0.234   0.599     qc      0         |                
   |          2      0    0.250   0.599     qc      0         |                
   |         loc     1    0.000   0.599     pn      0         |                
   |                                                          |                
   | Augmentation charge Rinner = 0.421                       |                
   | No partial core correction                               |                
   ------------------------------------------------------------                
   | "1|0.6|13|15|17|10(qc=8)"                                |                
   ------------------------------------------------------------                
   |      Author: Chris J. Pickard, Cambridge University      |                
   ============================================================                
 
 Pseudo atomic calculation performed for Si 3s2 3p2
 
 Converged in 21 iterations to a total energy of -162.9266 eV
 
 Pseudo atomic calculation performed for H:mu 1s1
 
 Converged in 18 iterations to a total energy of -11.6786 eV
 Calculation parallelised over 8 processes.
 Data is distributed by G-vector(8-way)

 ************************************ Title ************************************
 

 ***************************** General Parameters ******************************
  
 output verbosity                               : normal  (1)
 write checkpoint data to                       : ./castep-pymuonsuite-test-data/muon-airss-out-castep/castep/Si2_8/Si2_8.check
 type of calculation                            : geometry optimization
 stress calculation                             : off
 density difference calculation                 : off
 electron localisation func (ELF) calculation   : off
 Hirshfeld analysis                             : off
 unlimited duration calculation
 timing information                             : on
 memory usage estimate                          : on
 write extra output files                       : on
 write final potential to formatted file        : off
 write final density to formatted file          : on
 write structure in CELL formatted file         : on
 write BibTeX reference list                    : on
 write OTFG pseudopotential files               : on
 write electrostatic potential file             : on
 write bands file                               : on
 checkpoint writing                             : both castep_bin and check files
  
 output         length unit                     : A
 output           mass unit                     : amu
 output           time unit                     : ps
 output         charge unit                     : e
 output           spin unit                     : hbar/2
 output         energy unit                     : eV
 output          force unit                     : eV/A
 output       velocity unit                     : A/ps
 output       pressure unit                     : GPa
 output     inv_length unit                     : 1/A
 output      frequency unit                     : cm-1
 output force constant unit                     : eV/A**2
 output         volume unit                     : A**3
 output   IR intensity unit                     : (D/A)**2/amu
 output         dipole unit                     : D
 output         efield unit                     : eV/A/e
 output        entropy unit                     : J/mol/K
  
 wavefunctions paging                           : none
 random number generator seed                   : randomised (151025690)
 data distribution                              : optimal for this architecture
 optimization strategy                          : maximize speed(+++)

 *********************** Exchange-Correlation Parameters ***********************
  
 using functional                               : Local Density Approximation
 relativistic treatment                         : Koelling-Harmon
 DFT+D: Semi-empirical dispersion correction    : off

 ************************* Pseudopotential Parameters **************************
  
 pseudopotential representation                 : reciprocal space
 <beta|phi> representation                      : reciprocal space
 spin-orbit coupling                            : off

 **************************** Basis Set Parameters *****************************
  
 plane wave basis set cut-off                   :   150.0000   eV
 size of standard grid                          :     2.0000
 size of   fine   gmax                          :    12.5491   1/A
 finite basis set correction                    : none

 **************************** Electronic Parameters ****************************
  
 number of  electrons                           :  8.000    
 net charge of system                           : +1.000    
 treating system as non-spin-polarized
 number of bands                                :          4

 ********************* Electronic Minimization Parameters **********************
  
 Method: Treating system as non-metallic,
         and number of  SD  steps               :          1
         and number of  CG  steps               :          4
  
 total energy / atom convergence tol.           : 0.1000E-07   eV
 eigen-energy convergence tolerance             : 0.7500E-08   eV
 max force / atom convergence tol.              : ignored
 convergence tolerance window                   :          3   cycles
 max. number of SCF cycles                      :        200
 periodic dipole correction                     : NONE

 ************************** Density Mixing Parameters **************************
  
 density-mixing scheme                          : Broyden
 max. length of mixing history                  :         20
 charge density mixing amplitude                : 0.8000    
 cut-off energy for mixing                      :  150.0       eV

 *********************** Population Analysis Parameters ************************
  
 Population analysis with cutoff                :  3.000       A
 Population analysis output                     : summary and pdos components

 ********************** Geometry Optimization Parameters ***********************
  
 optimization method                            : LBFGS
 max. no. of LBFGS updates                      : unbounded
 variable cell method                           : fixed basis quality
 max. number of steps                           :        300
 estimated bulk modulus                         :  500.0       GPa
 estimated <frequency>                          :  1668.       cm-1
 geom line minimiser                            : on
 with line minimiser tolerance                  :     0.4000
 total energy convergence tolerance             : 0.2000E-04   eV/atom
        max ionic |force| tolerance             : 0.5000E-01   eV/A
 max ionic |displacement| tolerance             : 0.1000E-02   A
   max |stress component| tolerance             : 0.1000       GPa
 convergence tolerance window                   :          2   steps
 backup results every                           :          5   steps
 write geom trajectory file                     : on

 *******************************************************************************
  
 
                           -------------------------------
                                      Unit Cell
                           -------------------------------
        Real Lattice(A)                      Reciprocal Lattice(1/A)
     2.6954640     2.6954640     0.0000000        1.165510893   1.165510893  -1.165510893
     2.6954640     0.0000000     2.6954640        1.165510893  -1.165510893   1.165510893
     0.0000000     2.6954640     2.6954640       -1.165510893   1.165510893   1.165510893
 
                       Lattice parameters(A)       Cell Angles
                    a =      3.811962          alpha =   60.000000
                    b =      3.811962          beta  =   60.000000
                    c =      3.811962          gamma =   60.000000
 
                       Current cell volume =            39.167928       A**3
                                   density =             1.459841   AMU/A**3
                                           =             2.424123     g/cm^3
 
                           -------------------------------
                                     Cell Contents
                           -------------------------------
                         Total number of ions in cell =    3
                      Total number of species in cell =    2
                        Max number of any one species =    2
 
            xxxxxxxxxxxxxxxxxxxxxxxxxxxxxxxxxxxxxxxxxxxxxxxxxxxxxxxxxxxx
            x  Element    Atom        Fractional coordinates of atoms  x
            x            Number           u          v          w      x
            x----------------------------------------------------------x
            x  Si           1         0.000000   0.000000   0.000000   x 
            x  Si           2         0.250000   0.250000   0.250000   x 
            x  H:mu         1         0.638085   0.786289   0.982729   x 
            xxxxxxxxxxxxxxxxxxxxxxxxxxxxxxxxxxxxxxxxxxxxxxxxxxxxxxxxxxxx
 
 
                         No user defined ionic velocities
 
                           -------------------------------
                                   Details of Species
                           -------------------------------
 
                               Mass of species in AMU
                                    Si   28.0855000
                                    H:mu    0.1134289
 
                          Electric Quadrupole Moment (Barn)
                                    Si    1.0000000 No Isotope Defined
                                    H:mu    0.0028600 Isotope  2
 
                          Files used for pseudopotentials:
                                    Si 3|1.8|5|6|7|30:31:32
                                    H:mu 1|0.6|13|15|17|10(qc=8)
 
                           -------------------------------
                              k-Points For BZ Sampling
                           -------------------------------
                       MP grid size for SCF calculation is  1  1  1
                            with an offset of   0.000  0.000  0.000
                       Number of kpoints used =             1
 
                           -------------------------------
                               Symmetry and Constraints
                           -------------------------------
 
                      Maximum deviation from symmetry =  0.00000         ANG
 
                      Number of symmetry operations   =           1
                      Number of ionic constraints     =           3
                      Point group of crystal =     1: C1, 1, 1
                      Space group of crystal =     1: P1, P 1
 
             Set iprint > 1 for details on symmetry rotations/translations
 
                         Centre of mass is constrained
             Set iprint > 1 for details of linear ionic constraints
 
                         Number of cell constraints= 6
                         Cell constraints are:  0 0 0 0 0 0
 
                         External pressure/stress (GPa)
                          0.00000   0.00000   0.00000
                                    0.00000   0.00000
                                              0.00000
  
+---------------- MEMORY AND SCRATCH DISK ESTIMATES PER PROCESS --------------+
|                                                     Memory          Disk    |
| Baseline code, static data and system overhead      464.0 MB         0.0 MB |
| BLAS internal memory storage                          0.0 MB         0.0 MB |
| Model and support data                               25.0 MB         0.0 MB |
| Electronic energy minimisation requirements           0.2 MB         0.0 MB |
| Force calculation requirements                        0.1 MB         0.0 MB |
|                                               ----------------------------- |
| Approx. total storage required per process          489.2 MB         0.0 MB |
|                                                                             |
| Requirements will fluctuate during execution and may exceed these estimates |
+-----------------------------------------------------------------------------+
Calculating total energy with cut-off of  150.000 eV.
------------------------------------------------------------------------ <-- SCF
SCF loop      Energy                           Energy gain       Timer   <-- SCF
                                               per atom          (sec)   <-- SCF
------------------------------------------------------------------------ <-- SCF
Initial  -7.51910621E+001                                          5.70  <-- SCF
      1  -2.98840397E+002                    7.45497782E+001       5.71  <-- SCF
      2  -3.39214093E+002                    1.34578988E+001       5.71  <-- SCF
      3  -3.39739401E+002                    1.75102647E-001       5.72  <-- SCF
      4  -3.38801709E+002                   -3.12564055E-001       5.73  <-- SCF
      5  -3.38742677E+002                   -1.96771553E-002       5.74  <-- SCF
      6  -3.38706540E+002                   -1.20456711E-002       5.75  <-- SCF
      7  -3.38707074E+002                    1.77885623E-004       5.76  <-- SCF
      8  -3.38707019E+002                   -1.83278758E-005       5.77  <-- SCF
      9  -3.38706910E+002                   -3.64510745E-005       5.78  <-- SCF
     10  -3.38706923E+002                    4.34486077E-006       5.79  <-- SCF
     11  -3.38706914E+002                   -2.87456113E-006       5.79  <-- SCF
     12  -3.38706915E+002                    3.22594122E-007       5.80  <-- SCF
     13  -3.38706915E+002                   -7.14712829E-009       5.81  <-- SCF
     14  -3.38706915E+002                    8.41849153E-009       5.82  <-- SCF
------------------------------------------------------------------------ <-- SCF
 
Final energy =  -338.7069151651     eV
(energy not corrected for finite basis set)
 

Writing analysis data to ./castep-pymuonsuite-test-data/muon-airss-out-castep/castep/Si2_8/Si2_8.castep_bin

Writing model to ./castep-pymuonsuite-test-data/muon-airss-out-castep/castep/Si2_8/Si2_8.check
 
+---------------- MEMORY AND SCRATCH DISK ESTIMATES PER PROCESS --------------+
|                                                     Memory          Disk    |
| Model and support data                               36.0 MB         0.0 MB |
| Electronic energy minimisation requirements           0.2 MB         0.0 MB |
| Geometry minimisation requirements                    0.2 MB         0.0 MB |
|                                               ----------------------------- |
| Approx. total storage required per process           36.3 MB         0.0 MB |
|                                                                             |
| Requirements will fluctuate during execution and may exceed these estimates |
+-----------------------------------------------------------------------------+
 
 
 ************************************** Forces **************************************
 *                                                                                  *
 *                           Cartesian components (eV/A)                            *
 * -------------------------------------------------------------------------------- *
 *                         x                    y                    z              *
 *                                                                                  *
 * Si              1     -2.09216              2.39289             -0.20661         *
 * Si              2      2.19405             -3.16460             -3.07881         *
 * H:mu            1     -0.10189              0.77171              3.28542         *
 *                                                                                  *
 ************************************************************************************
 LBFGS: finished iteration     0 with enthalpy= -3.38706915E+002 eV
  
 +-----------+-----------------+-----------------+------------+-----+ <-- LBFGS
 | Parameter |      value      |    tolerance    |    units   | OK? | <-- LBFGS
 +-----------+-----------------+-----------------+------------+-----+ <-- LBFGS
 |  dE/ion   |   0.000000E+000 |   2.000000E-005 |         eV | No  | <-- LBFGS
 |  |F|max   |   4.930275E+000 |   5.000000E-002 |       eV/A | No  | <-- LBFGS
 |  |dR|max  |   0.000000E+000 |   1.000000E-003 |          A | No  | <-- LBFGS
 +-----------+-----------------+-----------------+------------+-----+ <-- LBFGS
  

================================================================================
 Starting LBFGS iteration          1 ...
================================================================================
  
 +------------+-------------+-------------+-----------------+ <-- min LBFGS
 |    Step    |   lambda    |   F.delta'  |    enthalpy     | <-- min LBFGS
 +------------+-------------+-------------+-----------------+ <-- min LBFGS
 |  previous  |    0.000000 |    0.738369 |     -338.706915 | <-- min LBFGS
 +------------+-------------+-------------+-----------------+ <-- min LBFGS
  

--------------------------------------------------------------------------------
 LBFGS: starting iteration         1 with trial guess (lambda=  1.000000)
--------------------------------------------------------------------------------
 
                           -------------------------------
                                     Cell Contents
                           -------------------------------
 
            xxxxxxxxxxxxxxxxxxxxxxxxxxxxxxxxxxxxxxxxxxxxxxxxxxxxxxxxxxxxxxxxx
            x  Element         Atom        Fractional coordinates of atoms  x
            x                 Number           u          v          w      x
            x---------------------------------------------------------------x
            x  Si                1         0.000490  -0.004535   0.004135   x
            x  Si                2         0.252038   0.252204   0.241845   x
            x  H:mu              1         0.635556   0.788620   0.986749   x
            xxxxxxxxxxxxxxxxxxxxxxxxxxxxxxxxxxxxxxxxxxxxxxxxxxxxxxxxxxxxxxxxx
 
 
------------------------------------------------------------------------ <-- SCF
SCF loop      Energy                           Energy gain       Timer   <-- SCF
                                               per atom          (sec)   <-- SCF
------------------------------------------------------------------------ <-- SCF
Initial  -3.38904609E+002                                          5.91  <-- SCF
      1  -3.38944695E+002                    1.33620298E-002       5.92  <-- SCF
      2  -3.38945592E+002                    2.98962057E-004       5.92  <-- SCF
      3  -3.38943937E+002                   -5.51584972E-004       5.93  <-- SCF
      4  -3.38934717E+002                   -3.07349257E-003       5.94  <-- SCF
      5  -3.38934834E+002                    3.89746300E-005       5.95  <-- SCF
      6  -3.38934815E+002                   -6.21849138E-006       5.96  <-- SCF
      7  -3.38934815E+002                    1.09789046E-007       5.97  <-- SCF
      8  -3.38934815E+002                   -7.26285705E-008       5.98  <-- SCF
      9  -3.38934815E+002                   -1.24953580E-008       5.98  <-- SCF
     10  -3.38934815E+002                   -2.77026547E-009       5.99  <-- SCF
     11  -3.38934815E+002                   -5.11455190E-010       5.99  <-- SCF
------------------------------------------------------------------------ <-- SCF
 
Final energy =  -338.9348150919     eV
(energy not corrected for finite basis set)
 
 
 ************************************** Forces **************************************
 *                                                                                  *
 *                           Cartesian components (eV/A)                            *
 * -------------------------------------------------------------------------------- *
 *                         x                    y                    z              *
 *                                                                                  *
 * Si              1     -1.87029              1.95031             -0.32095         *
 * Si              2      1.76941             -2.59160             -3.05370         *
 * H:mu            1      0.10088              0.64129              3.37465         *
 *                                                                                  *
 ************************************************************************************
  
 +------------+-------------+-------------+-----------------+ <-- min LBFGS
 |    Step    |   lambda    |   F.delta'  |    enthalpy     | <-- min LBFGS
 +------------+-------------+-------------+-----------------+ <-- min LBFGS
 |  previous  |    0.000000 |    0.738369 |     -338.706915 | <-- min LBFGS
 | trial step |    1.000000 |    0.671541 |     -338.934815 | <-- min LBFGS
 +------------+-------------+-------------+-----------------+ <-- min LBFGS
  

--------------------------------------------------------------------------------
 LBFGS: improving iteration         1 with line minimization (lambda= 10.299245)
--------------------------------------------------------------------------------
 
                           -------------------------------
                                     Cell Contents
                           -------------------------------
 
            xxxxxxxxxxxxxxxxxxxxxxxxxxxxxxxxxxxxxxxxxxxxxxxxxxxxxxxxxxxxxxxxx
            x  Element         Atom        Fractional coordinates of atoms  x
            x                 Number           u          v          w      x
            x---------------------------------------------------------------x
            x  Si                1         0.005051  -0.046705   0.042591   x
            x  Si                2         0.270987   0.272696   0.166006   x
            x  H:mu              1         0.612047   0.810298   1.024131   x
            xxxxxxxxxxxxxxxxxxxxxxxxxxxxxxxxxxxxxxxxxxxxxxxxxxxxxxxxxxxxxxxxx
 
 
------------------------------------------------------------------------ <-- SCF
SCF loop      Energy                           Energy gain       Timer   <-- SCF
                                               per atom          (sec)   <-- SCF
------------------------------------------------------------------------ <-- SCF
Initial  -3.40641308E+002                                          6.02  <-- SCF
      1  -3.40636395E+002                   -1.63775511E-003       6.02  <-- SCF
      2  -3.40855067E+002                    7.28905459E-002       6.03  <-- SCF
      3  -3.40341660E+002                   -1.71135546E-001       6.04  <-- SCF
      4  -3.40273875E+002                   -2.25950786E-002       6.05  <-- SCF
      5  -3.40272994E+002                   -2.93661457E-004       6.06  <-- SCF
      6  -3.40272881E+002                   -3.75640928E-005       6.06  <-- SCF
      7  -3.40272865E+002                   -5.46372927E-006       6.07  <-- SCF
      8  -3.40272865E+002                   -7.57522287E-008       6.08  <-- SCF
      9  -3.40272865E+002                    3.21896134E-008       6.08  <-- SCF
     10  -3.40272865E+002                    1.17156640E-008       6.09  <-- SCF
     11  -3.40272865E+002                    7.27989428E-010       6.10  <-- SCF
     12  -3.40272865E+002                    9.76410060E-011       6.10  <-- SCF
------------------------------------------------------------------------ <-- SCF
 
Final energy =  -340.2728648200     eV
(energy not corrected for finite basis set)
 
 
 ************************************** Forces **************************************
 *                                                                                  *
 *                           Cartesian components (eV/A)                            *
 * -------------------------------------------------------------------------------- *
 *                         x                    y                    z              *
 *                                                                                  *
 * Si              1     -0.99045             -1.24902              2.27650         *
 * Si              2     -0.69864              2.15060             -5.25686         *
 * H:mu            1      1.68910             -0.90158              2.98037         *
 *                                                                                  *
 ************************************************************************************
  
 +------------+-------------+-------------+-----------------+ <-- min LBFGS
 |    Step    |   lambda    |   F.delta'  |    enthalpy     | <-- min LBFGS
 +------------+-------------+-------------+-----------------+ <-- min LBFGS
 |  previous  |    0.000000 |    0.738369 |     -338.706915 | <-- min LBFGS
 | trial step |    1.000000 |    0.671541 |     -338.934815 | <-- min LBFGS
 |  line step |   10.299245 |    0.247713 |     -340.272865 | <-- min LBFGS
 +------------+-------------+-------------+-----------------+ <-- min LBFGS
  
 geom_check_lambda: WARNING - fractional ionic displacement > 10%
 geom_check_lambda:         - suggest you reconsider the initial ionic positions

--------------------------------------------------------------------------------
 LBFGS: improving iteration         1 with quad minimization (lambda= 15.734332)
--------------------------------------------------------------------------------
 
                           -------------------------------
                                     Cell Contents
                           -------------------------------
 
            xxxxxxxxxxxxxxxxxxxxxxxxxxxxxxxxxxxxxxxxxxxxxxxxxxxxxxxxxxxxxxxxx
            x  Element         Atom        Fractional coordinates of atoms  x
            x                 Number           u          v          w      x
            x---------------------------------------------------------------x
            x  Si                1         0.007716  -0.071352   0.065068   x
            x  Si                2         0.282063   0.284672   0.121681   x
            x  H:mu              1         0.598306   0.822969   1.045980   x
            xxxxxxxxxxxxxxxxxxxxxxxxxxxxxxxxxxxxxxxxxxxxxxxxxxxxxxxxxxxxxxxxx
 
 
------------------------------------------------------------------------ <-- SCF
SCF loop      Energy                           Energy gain       Timer   <-- SCF
                                               per atom          (sec)   <-- SCF
------------------------------------------------------------------------ <-- SCF
Initial  -3.41048212E+002                                          6.13  <-- SCF
      1  -3.40523887E+002                   -1.74774938E-001       6.13  <-- SCF
      2  -3.40601886E+002                    2.59995632E-002       6.14  <-- SCF
      3  -3.40504108E+002                   -3.25926483E-002       6.15  <-- SCF
      4  -3.40501321E+002                   -9.29081670E-004       6.15  <-- SCF
      5  -3.40500460E+002                   -2.87098283E-004       6.16  <-- SCF
      6  -3.40500470E+002                    3.46453414E-006       6.17  <-- SCF
      7  -3.40500432E+002                   -1.26462104E-005       6.18  <-- SCF
      8  -3.40500436E+002                    1.39101846E-006       6.19  <-- SCF
      9  -3.40500436E+002                   -1.66244834E-007       6.20  <-- SCF
     10  -3.40500436E+002                    3.70185895E-008       6.21  <-- SCF
     11  -3.40500436E+002                   -3.79131809E-008       6.21  <-- SCF
     12  -3.40500436E+002                    3.47908278E-008       6.22  <-- SCF
     13  -3.40500436E+002                   -3.53236318E-008       6.23  <-- SCF
     14  -3.40500436E+002                    3.05088346E-008       6.24  <-- SCF
     15  -3.40500436E+002                   -2.67078765E-008       6.24  <-- SCF
     16  -3.40500436E+002                    1.97172155E-008       6.25  <-- SCF
     17  -3.40500436E+002                   -1.88429418E-008       6.26  <-- SCF
     18  -3.40500436E+002                    1.94449163E-008       6.27  <-- SCF
     19  -3.40500436E+002                   -1.99870656E-008       6.28  <-- SCF
     20  -3.40500436E+002                    2.09837128E-008       6.29  <-- SCF
     21  -3.40500436E+002                   -2.11600950E-008       6.29  <-- SCF
     22  -3.40500436E+002                    2.27280710E-008       6.30  <-- SCF
     23  -3.40500436E+002                   -2.30222346E-008       6.31  <-- SCF
     24  -3.40500436E+002                    2.52593093E-008       6.32  <-- SCF
     25  -3.40500436E+002                   -2.56248025E-008       6.33  <-- SCF
     26  -3.40500436E+002                    2.69777588E-008       6.34  <-- SCF
     27  -3.40500436E+002                   -2.65848585E-008       6.35  <-- SCF
     28  -3.40500436E+002                    2.96831881E-008       6.36  <-- SCF
     29  -3.40500436E+002                   -3.06121633E-008       6.37  <-- SCF
     30  -3.40500436E+002                    2.92212945E-008       6.38  <-- SCF
     31  -3.40500436E+002                   -2.79935153E-008       6.38  <-- SCF
     32  -3.40500436E+002                    2.68483442E-008       6.39  <-- SCF
     33  -3.40500436E+002                   -2.72333333E-008       6.40  <-- SCF
     34  -3.40500436E+002                    2.41161362E-008       6.41  <-- SCF
     35  -3.40500436E+002                   -2.33470118E-008       6.42  <-- SCF
     36  -3.40500436E+002                    1.61733626E-008       6.43  <-- SCF
     37  -3.40500436E+002                   -1.47973011E-008       6.44  <-- SCF
     38  -3.40500436E+002                    6.78410032E-009       6.45  <-- SCF
     39  -3.40500436E+002                   -5.52683541E-009       6.45  <-- SCF
------------------------------------------------------------------------ <-- SCF
 
Final energy =  -340.5004357784     eV
(energy not corrected for finite basis set)
 
 
 ************************************** Forces **************************************
 *                                                                                  *
 *                           Cartesian components (eV/A)                            *
 * -------------------------------------------------------------------------------- *
 *                         x                    y                    z              *
 *                                                                                  *
 * Si              1     -0.39847             -2.42375              4.67975         *
 * Si              2     -1.88681              4.12158             -6.39972         *
 * H:mu            1      2.28528             -1.69783              1.71996         *
 *                                                                                  *
 ************************************************************************************
  
 +------------+-------------+-------------+-----------------+ <-- min LBFGS
 |    Step    |   lambda    |   F.delta'  |    enthalpy     | <-- min LBFGS
 +------------+-------------+-------------+-----------------+ <-- min LBFGS
 |  previous  |    0.000000 |    0.738369 |     -338.706915 | <-- min LBFGS
 | trial step |    1.000000 |    0.671541 |     -338.934815 | <-- min LBFGS
 |  line step |   10.299245 |    0.247713 |     -340.272865 | <-- min LBFGS
 |  quad step |   15.734332 |    0.011196 |     -340.500436 | <-- min LBFGS
 +------------+-------------+-------------+-----------------+ <-- min LBFGS
  
 LBFGS: finished iteration     1 with enthalpy= -3.40500436E+002 eV
  
 +-----------+-----------------+-----------------+------------+-----+ <-- LBFGS
 | Parameter |      value      |    tolerance    |    units   | OK? | <-- LBFGS
 +-----------+-----------------+-----------------+------------+-----+ <-- LBFGS
 |  dE/ion   |   5.978402E-001 |   2.000000E-005 |         eV | No  | <-- LBFGS
 |  |F|max   |   7.842439E+000 |   5.000000E-002 |       eV/A | No  | <-- LBFGS
 |  |dR|max  |   4.042165E-001 |   1.000000E-003 |          A | No  | <-- LBFGS
 +-----------+-----------------+-----------------+------------+-----+ <-- LBFGS
  

================================================================================
 Starting LBFGS iteration          2 ...
================================================================================
  
 +------------+-------------+-------------+-----------------+ <-- min LBFGS
 |    Step    |   lambda    |   F.delta'  |    enthalpy     | <-- min LBFGS
 +------------+-------------+-------------+-----------------+ <-- min LBFGS
 |  previous  |    0.000000 |    0.592213 |     -340.500436 | <-- min LBFGS
 +------------+-------------+-------------+-----------------+ <-- min LBFGS
  

--------------------------------------------------------------------------------
 LBFGS: starting iteration         2 with trial guess (lambda=  1.000000)
--------------------------------------------------------------------------------
 
                           -------------------------------
                                     Cell Contents
                           -------------------------------
 
            xxxxxxxxxxxxxxxxxxxxxxxxxxxxxxxxxxxxxxxxxxxxxxxxxxxxxxxxxxxxxxxxx
            x  Element         Atom        Fractional coordinates of atoms  x
            x                 Number           u          v          w      x
            x---------------------------------------------------------------x
            x  Si                1         0.001572  -0.076047   0.077955   x
            x  Si                2         0.295604   0.277974   0.101019   x
            x  H:mu              1         0.590908   0.834362   1.053754   x
            xxxxxxxxxxxxxxxxxxxxxxxxxxxxxxxxxxxxxxxxxxxxxxxxxxxxxxxxxxxxxxxxx
 
 
------------------------------------------------------------------------ <-- SCF
SCF loop      Energy                           Energy gain       Timer   <-- SCF
                                               per atom          (sec)   <-- SCF
------------------------------------------------------------------------ <-- SCF
Initial  -3.41143307E+002                                          6.49  <-- SCF
      1  -3.40990958E+002                   -5.07831478E-002       6.50  <-- SCF
      2  -3.41001052E+002                    3.36476085E-003       6.50  <-- SCF
      3  -3.40967953E+002                   -1.10331416E-002       6.51  <-- SCF
      4  -3.40963929E+002                   -1.34112114E-003       6.52  <-- SCF
      5  -3.40964595E+002                    2.22003794E-004       6.53  <-- SCF
      6  -3.40964057E+002                   -1.79376477E-004       6.54  <-- SCF
      7  -3.40964064E+002                    2.40828087E-006       6.55  <-- SCF
      8  -3.40964063E+002                   -3.45526433E-007       6.56  <-- SCF
      9  -3.40964063E+002                   -4.27282037E-008       6.57  <-- SCF
     10  -3.40964063E+002                    3.26984583E-008       6.57  <-- SCF
     11  -3.40964063E+002                   -2.95227088E-009       6.58  <-- SCF
     12  -3.40964063E+002                   -1.07087693E-009       6.58  <-- SCF
------------------------------------------------------------------------ <-- SCF
 
Final energy =  -340.9640633943     eV
(energy not corrected for finite basis set)
 
 
 ************************************** Forces **************************************
 *                                                                                  *
 *                           Cartesian components (eV/A)                            *
 * -------------------------------------------------------------------------------- *
 *                         x                    y                    z              *
 *                                                                                  *
 * Si              1     -0.57645             -1.96435              3.79789         *
 * Si              2     -1.36237              3.64319             -4.63603         *
 * H:mu            1      1.93882             -1.67884              0.83814         *
 *                                                                                  *
 ************************************************************************************
  
 +------------+-------------+-------------+-----------------+ <-- min LBFGS
 |    Step    |   lambda    |   F.delta'  |    enthalpy     | <-- min LBFGS
 +------------+-------------+-------------+-----------------+ <-- min LBFGS
 |  previous  |    0.000000 |    0.592213 |     -340.500436 | <-- min LBFGS
 | trial step |    1.000000 |    0.409963 |     -340.964063 | <-- min LBFGS
 +------------+-------------+-------------+-----------------+ <-- min LBFGS
  

--------------------------------------------------------------------------------
 LBFGS: improving iteration         2 with line minimization (lambda=  3.249451)
--------------------------------------------------------------------------------
 
                           -------------------------------
                                     Cell Contents
                           -------------------------------
 
            xxxxxxxxxxxxxxxxxxxxxxxxxxxxxxxxxxxxxxxxxxxxxxxxxxxxxxxxxxxxxxxxx
            x  Element         Atom        Fractional coordinates of atoms  x
            x                 Number           u          v          w      x
            x---------------------------------------------------------------x
            x  Si                1        -0.012247  -0.086607   0.106945   x
            x  Si                2         0.326064   0.262905   0.054542   x
            x  H:mu              1         0.574268   0.859991   1.071242   x
            xxxxxxxxxxxxxxxxxxxxxxxxxxxxxxxxxxxxxxxxxxxxxxxxxxxxxxxxxxxxxxxxx
 
 
------------------------------------------------------------------------ <-- SCF
SCF loop      Energy                           Energy gain       Timer   <-- SCF
                                               per atom          (sec)   <-- SCF
------------------------------------------------------------------------ <-- SCF
Initial  -3.41824288E+002                                          6.61  <-- SCF
      1  -3.41266304E+002                   -1.85994600E-001       6.61  <-- SCF
      2  -3.41434361E+002                    5.60189821E-002       6.62  <-- SCF
      3  -3.41958833E+002                    1.74824096E-001       6.63  <-- SCF
      4  -3.41420326E+002                   -1.79502216E-001       6.64  <-- SCF
      5  -3.41535770E+002                    3.84812526E-002       6.65  <-- SCF
      6  -3.41258484E+002                   -9.24287637E-002       6.66  <-- SCF
      7  -3.41400141E+002                    4.72189559E-002       6.67  <-- SCF
      8  -3.41145146E+002                   -8.49981014E-002       6.68  <-- SCF
      9  -3.42074549E+002                    3.09800719E-001       6.69  <-- SCF
     10  -3.41542962E+002                   -1.77195596E-001       6.70  <-- SCF
     11  -3.42060980E+002                    1.72672752E-001       6.71  <-- SCF
     12  -3.41298729E+002                   -2.54083777E-001       6.72  <-- SCF
     13  -3.41384172E+002                    2.84810413E-002       6.73  <-- SCF
     14  -3.41226110E+002                   -5.26871731E-002       6.74  <-- SCF
     15  -3.41887002E+002                    2.20297121E-001       6.75  <-- SCF
     16  -3.41392380E+002                   -1.64873833E-001       6.76  <-- SCF
     17  -3.41806816E+002                    1.38145441E-001       6.77  <-- SCF
     18  -3.41354562E+002                   -1.50751353E-001       6.78  <-- SCF
     19  -3.41982771E+002                    2.09402745E-001       6.79  <-- SCF
     20  -3.41349491E+002                   -2.11093262E-001       6.80  <-- SCF
     21  -3.41439125E+002                    2.98780496E-002       6.81  <-- SCF
     22  -3.41220486E+002                   -7.28796614E-002       6.82  <-- SCF
     23  -3.41957535E+002                    2.45683052E-001       6.83  <-- SCF
     24  -3.41415134E+002                   -1.80800488E-001       6.84  <-- SCF
     25  -3.41710094E+002                    9.83200093E-002       6.86  <-- SCF
     26  -3.41284006E+002                   -1.42029183E-001       6.86  <-- SCF
     27  -3.42030726E+002                    2.48906754E-001       6.88  <-- SCF
     28  -3.41372827E+002                   -2.19299673E-001       6.89  <-- SCF
     29  -3.41189599E+002                   -6.10762890E-002       6.90  <-- SCF
     30  -3.42046073E+002                    2.85491411E-001       6.91  <-- SCF
     31  -3.41431696E+002                   -2.04792286E-001       6.92  <-- SCF
     32  -3.42315506E+002                    2.94603248E-001       6.93  <-- SCF
     33  -3.41460347E+002                   -2.85052851E-001       6.94  <-- SCF
     34  -3.41605489E+002                    4.83807543E-002       6.96  <-- SCF
     35  -3.41266826E+002                   -1.12887710E-001       6.97  <-- SCF
     36  -3.41412080E+002                    4.84178309E-002       6.98  <-- SCF
     37  -3.41190464E+002                   -7.38718129E-002       6.99  <-- SCF
     38  -3.42407961E+002                    4.05832318E-001       7.00  <-- SCF
     39  -3.41578001E+002                   -2.76653507E-001       7.01  <-- SCF
     40  -3.42333444E+002                    2.51814507E-001       7.02  <-- SCF
     41  -3.41335363E+002                   -3.32693745E-001       7.04  <-- SCF
     42  -3.41730106E+002                    1.31581042E-001       7.05  <-- SCF
     43  -3.41282901E+002                   -1.49068285E-001       7.06  <-- SCF
     44  -3.42188435E+002                    3.01844692E-001       7.07  <-- SCF
     45  -3.41427740E+002                   -2.53565067E-001       7.08  <-- SCF
     46  -3.41948811E+002                    1.73690305E-001       7.09  <-- SCF
     47  -3.41287749E+002                   -2.20353943E-001       7.10  <-- SCF
     48  -3.42299452E+002                    3.37234226E-001       7.11  <-- SCF
     49  -3.41467969E+002                   -2.77160993E-001       7.13  <-- SCF
     50  -3.41189332E+002                   -9.28788845E-002       7.14  <-- SCF
     51  -3.41812065E+002                    2.07577463E-001       7.15  <-- SCF
     52  -3.41466366E+002                   -1.15232750E-001       7.16  <-- SCF
     53  -3.42560189E+002                    3.64607562E-001       7.17  <-- SCF
     54  -3.41435927E+002                   -3.74753958E-001       7.19  <-- SCF
     55  -3.41062970E+002                   -1.24319094E-001       7.19  <-- SCF
     56  -3.42049445E+002                    3.28825121E-001       7.21  <-- SCF
     57  -3.41803527E+002                   -8.19728126E-002       7.22  <-- SCF
     58  -3.41244062E+002                   -1.86488351E-001       7.23  <-- SCF
     59  -3.41950015E+002                    2.35317615E-001       7.24  <-- SCF
     60  -3.41578205E+002                   -1.23936621E-001       7.25  <-- SCF
     61  -3.42510170E+002                    3.10655175E-001       7.26  <-- SCF
     62  -3.41428406E+002                   -3.60588195E-001       7.27  <-- SCF
     63  -3.42139590E+002                    2.37061412E-001       7.28  <-- SCF
     64  -3.41373187E+002                   -2.55467819E-001       7.30  <-- SCF
     65  -3.41624169E+002                    8.36606840E-002       7.31  <-- SCF
     66  -3.41236869E+002                   -1.29099772E-001       7.32  <-- SCF
     67  -3.42009689E+002                    2.57606441E-001       7.33  <-- SCF
     68  -3.41423471E+002                   -1.95406014E-001       7.34  <-- SCF
     69  -3.42063359E+002                    2.13296051E-001       7.35  <-- SCF
     70  -3.41237473E+002                   -2.75295259E-001       7.36  <-- SCF
     71  -3.41976952E+002                    2.46492896E-001       7.37  <-- SCF
     72  -3.41441831E+002                   -1.78373407E-001       7.38  <-- SCF
     73  -3.41986391E+002                    1.81519786E-001       7.39  <-- SCF
     74  -3.41287116E+002                   -2.33091530E-001       7.40  <-- SCF
     75  -3.41959966E+002                    2.24283234E-001       7.42  <-- SCF
     76  -3.41395267E+002                   -1.88232988E-001       7.43  <-- SCF
     77  -3.42056811E+002                    2.20514844E-001       7.44  <-- SCF
     78  -3.41352017E+002                   -2.34931332E-001       7.45  <-- SCF
     79  -3.41339389E+002                   -4.20952267E-003       7.46  <-- SCF
     80  -3.41204645E+002                   -4.49146510E-002       7.47  <-- SCF
     81  -3.41520128E+002                    1.05160955E-001       7.48  <-- SCF
     82  -3.41345767E+002                   -5.81203150E-002       7.49  <-- SCF
     83  -3.41539338E+002                    6.45237966E-002       7.51  <-- SCF
     84  -3.41354577E+002                   -6.15871017E-002       7.52  <-- SCF
     85  -3.41534126E+002                    5.98496666E-002       7.53  <-- SCF
     86  -3.41406577E+002                   -4.25163766E-002       7.54  <-- SCF
     87  -3.41310488E+002                   -3.20296261E-002       7.55  <-- SCF
     88  -3.41648504E+002                    1.12672142E-001       7.56  <-- SCF
     89  -3.41287733E+002                   -1.20257065E-001       7.57  <-- SCF
     90  -3.41813189E+002                    1.75151795E-001       7.58  <-- SCF
     91  -3.41408048E+002                   -1.35046827E-001       7.59  <-- SCF
     92  -3.42065955E+002                    2.19302332E-001       7.60  <-- SCF
     93  -3.41381274E+002                   -2.28227105E-001       7.61  <-- SCF
     94  -3.41849803E+002                    1.56176393E-001       7.63  <-- SCF
     95  -3.41317832E+002                   -1.77323757E-001       7.64  <-- SCF
     96  -3.41604135E+002                    9.54345080E-002       7.65  <-- SCF
     97  -3.41238341E+002                   -1.21931281E-001       7.66  <-- SCF
     98  -3.41781465E+002                    1.81041145E-001       7.67  <-- SCF
     99  -3.41421082E+002                   -1.20127546E-001       7.68  <-- SCF
    100  -3.42302653E+002                    2.93856815E-001       7.69  <-- SCF
    101  -3.41473810E+002                   -2.76281005E-001       7.70  <-- SCF
    102  -3.42793898E+002                    4.40029605E-001       7.72  <-- SCF
    103  -3.41472677E+002                   -4.40407269E-001       7.73  <-- SCF
    104  -3.41812191E+002                    1.13171505E-001       7.74  <-- SCF
    105  -3.41299791E+002                   -1.70800079E-001       7.75  <-- SCF
    106  -3.41337736E+002                    1.26482253E-002       7.76  <-- SCF
    107  -3.41388643E+002                    1.69692442E-002       7.77  <-- SCF
    108  -3.41238652E+002                   -4.99970192E-002       7.79  <-- SCF
    109  -3.41290491E+002                    1.72795300E-002       7.80  <-- SCF
    110  -3.41248805E+002                   -1.38953001E-002       7.81  <-- SCF
    111  -3.41480814E+002                    7.73363273E-002       7.82  <-- SCF
    112  -3.41230980E+002                   -8.32779703E-002       7.83  <-- SCF
    113  -3.41829748E+002                    1.99589455E-001       7.84  <-- SCF
    114  -3.41391656E+002                   -1.46030671E-001       7.85  <-- SCF
    115  -3.41176329E+002                   -7.17757743E-002       7.86  <-- SCF
    116  -3.41477602E+002                    1.00424344E-001       7.87  <-- SCF
    117  -3.41369767E+002                   -3.59449566E-002       7.88  <-- SCF
    118  -3.41319754E+002                   -1.66710694E-002       7.89  <-- SCF
    119  -3.41257493E+002                   -2.07536299E-002       7.90  <-- SCF
    120  -3.41343640E+002                    2.87154775E-002       7.92  <-- SCF
    121  -3.41483181E+002                    4.65137645E-002       7.93  <-- SCF
    122  -3.41573081E+002                    2.99667111E-002       7.93  <-- SCF
    123  -3.41494802E+002                   -2.60928498E-002       7.95  <-- SCF
    124  -3.41348134E+002                   -4.88894427E-002       7.96  <-- SCF
    125  -3.41375654E+002                    9.17338916E-003       7.97  <-- SCF
    126  -3.41327069E+002                   -1.61949178E-002       7.98  <-- SCF
    127  -3.41284067E+002                   -1.43342512E-002       7.99  <-- SCF
    128  -3.41181699E+002                   -3.41226965E-002       8.00  <-- SCF
    129  -3.41503595E+002                    1.07298731E-001       8.01  <-- SCF
    130  -3.41510165E+002                    2.19010164E-003       8.02  <-- SCF
    131  -3.41312243E+002                   -6.59741761E-002       8.04  <-- SCF
    132  -3.41483253E+002                    5.70035418E-002       8.05  <-- SCF
    133  -3.41807341E+002                    1.08029109E-001       8.06  <-- SCF
    134  -3.41524841E+002                   -9.41665251E-002       8.08  <-- SCF
    135  -3.41239085E+002                   -9.52518309E-002       8.09  <-- SCF
    136  -3.41435345E+002                    6.54197950E-002       8.10  <-- SCF
    137  -3.41206573E+002                   -7.62571916E-002       8.11  <-- SCF
    138  -3.41537683E+002                    1.10369787E-001       8.13  <-- SCF
    139  -3.41342061E+002                   -6.52071953E-002       8.14  <-- SCF
    140  -3.41940619E+002                    1.99519434E-001       8.15  <-- SCF
    141  -3.41545871E+002                   -1.31582871E-001       8.16  <-- SCF
    142  -3.41624619E+002                    2.62495634E-002       8.17  <-- SCF
    143  -3.41240118E+002                   -1.28167002E-001       8.18  <-- SCF
    144  -3.42369149E+002                    3.76343463E-001       8.19  <-- SCF
    145  -3.41606853E+002                   -2.54098600E-001       8.21  <-- SCF
    146  -3.42371126E+002                    2.54757798E-001       8.22  <-- SCF
    147  -3.41327499E+002                   -3.47875952E-001       8.23  <-- SCF
    148  -3.41412588E+002                    2.83631864E-002       8.24  <-- SCF
    149  -3.41283434E+002                   -4.30512788E-002       8.26  <-- SCF
    150  -3.41758783E+002                    1.58449654E-001       8.27  <-- SCF
    151  -3.41304126E+002                   -1.51552536E-001       8.28  <-- SCF
    152  -3.41377601E+002                    2.44917591E-002       8.29  <-- SCF
    153  -3.41275555E+002                   -3.40154269E-002       8.30  <-- SCF
    154  -3.41299426E+002                    7.95709550E-003       8.31  <-- SCF
    155  -3.41286468E+002                   -4.31946244E-003       8.32  <-- SCF
    156  -3.41344612E+002                    1.93813334E-002       8.33  <-- SCF
    157  -3.41363664E+002                    6.35072071E-003       8.35  <-- SCF
    158  -3.41335817E+002                   -9.28225855E-003       8.36  <-- SCF
    159  -3.41343016E+002                    2.39964261E-003       8.37  <-- SCF
    160  -3.41277291E+002                   -2.19083349E-002       8.38  <-- SCF
    161  -3.41289292E+002                    4.00034994E-003       8.39  <-- SCF
    162  -3.41493944E+002                    6.82173657E-002       8.40  <-- SCF
    163  -3.41511596E+002                    5.88386358E-003       8.41  <-- SCF
    164  -3.41841404E+002                    1.09936034E-001       8.42  <-- SCF
    165  -3.41505881E+002                   -1.11840839E-001       8.43  <-- SCF
    166  -3.41263744E+002                   -8.07123702E-002       8.45  <-- SCF
    167  -3.41221805E+002                   -1.39797384E-002       8.45  <-- SCF
    168  -3.41434970E+002                    7.10550797E-002       8.47  <-- SCF
    169  -3.41250084E+002                   -6.16288021E-002       8.48  <-- SCF
    170  -3.42103244E+002                    2.84386612E-001       8.49  <-- SCF
    171  -3.41518200E+002                   -1.95014421E-001       8.50  <-- SCF
    172  -3.41143498E+002                   -1.24900775E-001       8.51  <-- SCF
    173  -3.41637197E+002                    1.64566296E-001       8.52  <-- SCF
    174  -3.41535319E+002                   -3.39594135E-002       8.53  <-- SCF
    175  -3.41622827E+002                    2.91695363E-002       8.54  <-- SCF
    176  -3.41699238E+002                    2.54701907E-002       8.55  <-- SCF
    177  -3.41195990E+002                   -1.67749164E-001       8.56  <-- SCF
    178  -3.41035076E+002                   -5.36380849E-002       8.57  <-- SCF
    179  -3.41906088E+002                    2.90337420E-001       8.58  <-- SCF
    180  -3.41674818E+002                   -7.70901704E-002       8.59  <-- SCF
    181  -3.41526143E+002                   -4.95583277E-002       8.61  <-- SCF
    182  -3.41294625E+002                   -7.71725753E-002       8.62  <-- SCF
    183  -3.41350077E+002                    1.84838559E-002       8.63  <-- SCF
    184  -3.41257898E+002                   -3.07262979E-002       8.64  <-- SCF
    185  -3.41264600E+002                    2.23398998E-003       8.65  <-- SCF
    186  -3.41277071E+002                    4.15722354E-003       8.66  <-- SCF
    187  -3.41389702E+002                    3.75434198E-002       8.67  <-- SCF
    188  -3.41404315E+002                    4.87111813E-003       8.69  <-- SCF
    189  -3.41183860E+002                   -7.34850930E-002       8.69  <-- SCF
    190  -3.42139554E+002                    3.18564854E-001       8.71  <-- SCF
    191  -3.41473428E+002                   -2.22041969E-001       8.72  <-- SCF
    192  -3.42279144E+002                    2.68571939E-001       8.73  <-- SCF
    193  -3.41416632E+002                   -2.87504113E-001       8.74  <-- SCF
    194  -3.41967464E+002                    1.83610614E-001       8.75  <-- SCF
    195  -3.41340713E+002                   -2.08916736E-001       8.76  <-- SCF
    196  -3.41883740E+002                    1.81008853E-001       8.77  <-- SCF
    197  -3.41411294E+002                   -1.57481873E-001       8.79  <-- SCF
    198  -3.41371350E+002                   -1.33146616E-002       8.80  <-- SCF
    199  -3.41248275E+002                   -4.10251150E-002       8.81  <-- SCF
    200  -3.41795953E+002                    1.82559225E-001       8.82  <-- SCF
------------------------------------------------------------------------ <-- SCF
 *Warning* max. SCF cycles performed but system has not reached the groundstate.
  
Current total energy =  -341.7959527462     eV
(energy not corrected for finite basis set)
 
  ****************************************************************************
  WARNING: electronic minimisation did not converge when finding ground state.
  ****************************************************************************

Writing analysis data to ./castep-pymuonsuite-test-data/muon-airss-out-castep/castep/Si2_8/Si2_8.castep_bin

Writing model to ./castep-pymuonsuite-test-data/muon-airss-out-castep/castep/Si2_8/Si2_8.check
