 +-------------------------------------------------+
 |                                                 |
 |      CCC   AA    SSS  TTTTT  EEEEE  PPPP        |
 |     C     A  A  S       T    E      P   P       |
 |     C     AAAA   SS     T    EEE    PPPP        |
 |     C     A  A     S    T    E      P           |
 |      CCC  A  A  SSS     T    EEEEE  P           |
 |                                                 |
 +-------------------------------------------------+
 |                                                 |
 | Welcome to Academic Release CASTEP version 19.11|          
 | Ab Initio Total Energy Program                  |
 |                                                 |
 | Authors:                                        |
 | M. Segall, M. Probert, C. Pickard, P. Hasnip,   |
 | S. Clark, K. Refson, J. R. Yates, M. Payne      |
 |                                                 |
 | Contributors:                                   |
 | P. Lindan, P. Haynes, J. White, V. Milman,      |
 | N. Govind, M. Gibson, P. Tulip, V. Cocula,      |
 | B. Montanari, D. Quigley, M. Glover,            |
 | L. Bernasconi, A. Perlov, M. Plummer,           |
 | E. McNellis, J. Meyer, J. Gale, D. Jochym       |
 | J. Aarons, B. Walker, R. Gillen, D. Jones       |
 | T. Green, I. J. Bush, C. J. Armstrong,          |
 | E. J. Higgins, E. L. Brown, M. S. McFly,        |
 | J. Wilkins, B-C. Shih, P. J. P. Byrne           |
 |                                                 |
 | Copyright (c) 2000 - 2018                       |
 |                                                 |
 |     Distributed under the terms of an           |
 |     Agreement between the United Kingdom        |
 |     Car-Parrinello (UKCP) Consortium,           |
 |     Daresbury Laboratory and Accelrys, Inc.     |
 |                                                 |
 | Please cite                                     |
 |                                                 |
 |     "First principles methods using CASTEP"     |
 |                                                 |
 |         Zeitschrift fuer Kristallographie       |
 |           220(5-6) pp. 567-570 (2005)           |
 |                                                 |
 | S. J. Clark, M. D. Segall, C. J. Pickard,       |
 | P. J. Hasnip, M. J. Probert, K. Refson,         |
 | M. C. Payne                                     |
 |                                                 |
 |       in all publications arising from          |
 |              your use of CASTEP                 |
 |                                                 |
 +-------------------------------------------------+
 |                                                 |
 |              http://www.castep.org              |
 |                                                 |
 +-------------------------------------------------+
 
 
 
 Compiled for linux_x86_64_ifort18 on Fri, 05 Jul 2019 15:43:56 +0100
 from code version 
 0a9e5daac2f4+ Castep191_branch Wed, 03 Jul 2019 08:43:28 +0000
 Compiler: Intel Fortran 18.0.3.222; Optimisation: fast
 MATHLIBS: Intel MKL(2018.0.3) (LAPACK version 3.7.0)
 FFT Lib : default
 Fundamental constants values: CODATA 2014
 
 Run started: Tue, 17 Nov 2020 15:08:08 +0000
 
 Atomic calculation performed for Si: 1s2 2s2 2p6 3s2 3p2
 
 Converged in 55 iterations to an ae energy of -7859.183 eV
 
   ============================================================                
   | Pseudopotential Report - Date of generation 17-11-2020   |                
   ------------------------------------------------------------                
   | Element: Si Ionic charge:  4.00 Level of theory: LDA     |                
   | Atomic Solver: Koelling-Harmon                           |                
   |                                                          |                
   |               Reference Electronic Structure             |                
   |         Orbital         Occupation         Energy        |                
   |            3s              2.000           -0.400        |                
   |            3p              2.000           -0.153        |                
   |                                                          |                
   |                 Pseudopotential Definition               |                
   |        Beta     l      e      Rc     scheme   norm       |                
   |          1      0   -0.400   1.797     qc      0         |                
   |          2      0    0.250   1.797     qc      0         |                
   |          3      1   -0.153   1.797     qc      0         |                
   |          4      1    0.250   1.797     qc      0         |                
   |          5      2    0.000   1.797     qc      0         |                
   |          6      2    0.250   1.797     qc      0         |                
   |         loc     3    0.000   1.797     pn      0         |                
   |                                                          |                
   | Augmentation charge Rinner = 1.255                       |                
   | Partial core correction Rc = 1.255                       |                
   ------------------------------------------------------------                
   | "3|1.8|5|6|7|30:31:32"                                   |                
   ------------------------------------------------------------                
   |      Author: Chris J. Pickard, Cambridge University      |                
   ============================================================                
 
 Atomic calculation performed for H:mu: 1s1
 
 Converged in 41 iterations to an ae energy of -12.134 eV
 
   ============================================================                
   | Pseudopotential Report - Date of generation 17-11-2020   |                
   ------------------------------------------------------------                
   | Element: H Ionic charge:  1.00 Level of theory: LDA      |                
   | Atomic Solver: Koelling-Harmon                           |                
   |                                                          |                
   |               Reference Electronic Structure             |                
   |         Orbital         Occupation         Energy        |                
   |            1s              1.000           -0.234        |                
   |                                                          |                
   |                 Pseudopotential Definition               |                
   |        Beta     l      e      Rc     scheme   norm       |                
   |          1      0   -0.234   0.599     qc      0         |                
   |          2      0    0.250   0.599     qc      0         |                
   |         loc     1    0.000   0.599     pn      0         |                
   |                                                          |                
   | Augmentation charge Rinner = 0.421                       |                
   | No partial core correction                               |                
   ------------------------------------------------------------                
   | "1|0.6|13|15|17|10(qc=8)"                                |                
   ------------------------------------------------------------                
   |      Author: Chris J. Pickard, Cambridge University      |                
   ============================================================                
 
 Pseudo atomic calculation performed for Si 3s2 3p2
 
 Converged in 21 iterations to a total energy of -162.9266 eV
 
 Pseudo atomic calculation performed for H:mu 1s1
 
 Converged in 18 iterations to a total energy of -11.6786 eV
 Calculation parallelised over 8 processes.
 Data is distributed by G-vector(8-way)

 ************************************ Title ************************************
 

 ***************************** General Parameters ******************************
  
 output verbosity                               : normal  (1)
 write checkpoint data to                       : ./castep-pymuonsuite-test-data/muon-airss-out-castep/castep/Si2_15/Si2_15.check
 type of calculation                            : geometry optimization
 stress calculation                             : off
 density difference calculation                 : off
 electron localisation func (ELF) calculation   : off
 Hirshfeld analysis                             : off
 unlimited duration calculation
 timing information                             : on
 memory usage estimate                          : on
 write extra output files                       : on
 write final potential to formatted file        : off
 write final density to formatted file          : on
 write structure in CELL formatted file         : on
 write BibTeX reference list                    : on
 write OTFG pseudopotential files               : on
 write electrostatic potential file             : on
 write bands file                               : on
 checkpoint writing                             : both castep_bin and check files
  
 output         length unit                     : A
 output           mass unit                     : amu
 output           time unit                     : ps
 output         charge unit                     : e
 output           spin unit                     : hbar/2
 output         energy unit                     : eV
 output          force unit                     : eV/A
 output       velocity unit                     : A/ps
 output       pressure unit                     : GPa
 output     inv_length unit                     : 1/A
 output      frequency unit                     : cm-1
 output force constant unit                     : eV/A**2
 output         volume unit                     : A**3
 output   IR intensity unit                     : (D/A)**2/amu
 output         dipole unit                     : D
 output         efield unit                     : eV/A/e
 output        entropy unit                     : J/mol/K
  
 wavefunctions paging                           : none
 random number generator seed                   : randomised (150808663)
 data distribution                              : optimal for this architecture
 optimization strategy                          : maximize speed(+++)

 *********************** Exchange-Correlation Parameters ***********************
  
 using functional                               : Local Density Approximation
 relativistic treatment                         : Koelling-Harmon
 DFT+D: Semi-empirical dispersion correction    : off

 ************************* Pseudopotential Parameters **************************
  
 pseudopotential representation                 : reciprocal space
 <beta|phi> representation                      : reciprocal space
 spin-orbit coupling                            : off

 **************************** Basis Set Parameters *****************************
  
 plane wave basis set cut-off                   :   150.0000   eV
 size of standard grid                          :     2.0000
 size of   fine   gmax                          :    12.5491   1/A
 finite basis set correction                    : none

 **************************** Electronic Parameters ****************************
  
 number of  electrons                           :  8.000    
 net charge of system                           : +1.000    
 treating system as non-spin-polarized
 number of bands                                :          4

 ********************* Electronic Minimization Parameters **********************
  
 Method: Treating system as non-metallic,
         and number of  SD  steps               :          1
         and number of  CG  steps               :          4
  
 total energy / atom convergence tol.           : 0.1000E-07   eV
 eigen-energy convergence tolerance             : 0.7500E-08   eV
 max force / atom convergence tol.              : ignored
 convergence tolerance window                   :          3   cycles
 max. number of SCF cycles                      :        200
 periodic dipole correction                     : NONE

 ************************** Density Mixing Parameters **************************
  
 density-mixing scheme                          : Broyden
 max. length of mixing history                  :         20
 charge density mixing amplitude                : 0.8000    
 cut-off energy for mixing                      :  150.0       eV

 *********************** Population Analysis Parameters ************************
  
 Population analysis with cutoff                :  3.000       A
 Population analysis output                     : summary and pdos components

 ********************** Geometry Optimization Parameters ***********************
  
 optimization method                            : LBFGS
 max. no. of LBFGS updates                      : unbounded
 variable cell method                           : fixed basis quality
 max. number of steps                           :        300
 estimated bulk modulus                         :  500.0       GPa
 estimated <frequency>                          :  1668.       cm-1
 geom line minimiser                            : on
 with line minimiser tolerance                  :     0.4000
 total energy convergence tolerance             : 0.2000E-04   eV/atom
        max ionic |force| tolerance             : 0.5000E-01   eV/A
 max ionic |displacement| tolerance             : 0.1000E-02   A
   max |stress component| tolerance             : 0.1000       GPa
 convergence tolerance window                   :          2   steps
 backup results every                           :          5   steps
 write geom trajectory file                     : on

 *******************************************************************************
  
 
                           -------------------------------
                                      Unit Cell
                           -------------------------------
        Real Lattice(A)                      Reciprocal Lattice(1/A)
     2.6954640     2.6954640     0.0000000        1.165510893   1.165510893  -1.165510893
     2.6954640     0.0000000     2.6954640        1.165510893  -1.165510893   1.165510893
     0.0000000     2.6954640     2.6954640       -1.165510893   1.165510893   1.165510893
 
                       Lattice parameters(A)       Cell Angles
                    a =      3.811962          alpha =   60.000000
                    b =      3.811962          beta  =   60.000000
                    c =      3.811962          gamma =   60.000000
 
                       Current cell volume =            39.167928       A**3
                                   density =             1.459841   AMU/A**3
                                           =             2.424123     g/cm^3
 
                           -------------------------------
                                     Cell Contents
                           -------------------------------
                         Total number of ions in cell =    3
                      Total number of species in cell =    2
                        Max number of any one species =    2
 
            xxxxxxxxxxxxxxxxxxxxxxxxxxxxxxxxxxxxxxxxxxxxxxxxxxxxxxxxxxxx
            x  Element    Atom        Fractional coordinates of atoms  x
            x            Number           u          v          w      x
            x----------------------------------------------------------x
            x  Si           1         0.000000   0.000000   0.000000   x 
            x  Si           2         0.250000   0.250000   0.250000   x 
            x  H:mu         1         0.550582   0.819521   0.433380   x 
            xxxxxxxxxxxxxxxxxxxxxxxxxxxxxxxxxxxxxxxxxxxxxxxxxxxxxxxxxxxx
 
 
                         No user defined ionic velocities
 
                           -------------------------------
                                   Details of Species
                           -------------------------------
 
                               Mass of species in AMU
                                    Si   28.0855000
                                    H:mu    0.1134289
 
                          Electric Quadrupole Moment (Barn)
                                    Si    1.0000000 No Isotope Defined
                                    H:mu    0.0028600 Isotope  2
 
                          Files used for pseudopotentials:
                                    Si 3|1.8|5|6|7|30:31:32
                                    H:mu 1|0.6|13|15|17|10(qc=8)
 
                           -------------------------------
                              k-Points For BZ Sampling
                           -------------------------------
                       MP grid size for SCF calculation is  1  1  1
                            with an offset of   0.000  0.000  0.000
                       Number of kpoints used =             1
 
                           -------------------------------
                               Symmetry and Constraints
                           -------------------------------
 
                      Maximum deviation from symmetry =  0.00000         ANG
 
                      Number of symmetry operations   =           1
                      Number of ionic constraints     =           3
                      Point group of crystal =     1: C1, 1, 1
                      Space group of crystal =     1: P1, P 1
 
             Set iprint > 1 for details on symmetry rotations/translations
 
                         Centre of mass is constrained
             Set iprint > 1 for details of linear ionic constraints
 
                         Number of cell constraints= 6
                         Cell constraints are:  0 0 0 0 0 0
 
                         External pressure/stress (GPa)
                          0.00000   0.00000   0.00000
                                    0.00000   0.00000
                                              0.00000
  
+---------------- MEMORY AND SCRATCH DISK ESTIMATES PER PROCESS --------------+
|                                                     Memory          Disk    |
| Baseline code, static data and system overhead      463.0 MB         0.0 MB |
| BLAS internal memory storage                          0.0 MB         0.0 MB |
| Model and support data                               25.0 MB         0.0 MB |
| Electronic energy minimisation requirements           0.2 MB         0.0 MB |
| Force calculation requirements                        0.1 MB         0.0 MB |
|                                               ----------------------------- |
| Approx. total storage required per process          488.2 MB         0.0 MB |
|                                                                             |
| Requirements will fluctuate during execution and may exceed these estimates |
+-----------------------------------------------------------------------------+
Calculating total energy with cut-off of  150.000 eV.
------------------------------------------------------------------------ <-- SCF
SCF loop      Energy                           Energy gain       Timer   <-- SCF
                                               per atom          (sec)   <-- SCF
------------------------------------------------------------------------ <-- SCF
Initial  -8.51513300E+001                                          5.71  <-- SCF
      1  -3.14358076E+002                    7.64022488E+001       5.72  <-- SCF
      2  -3.39851864E+002                    8.49792920E+000       5.73  <-- SCF
      3  -3.41962782E+002                    7.03639378E-001       5.73  <-- SCF
      4  -3.40258691E+002                   -5.68030317E-001       5.74  <-- SCF
      5  -3.40170782E+002                   -2.93032022E-002       5.75  <-- SCF
      6  -3.40145225E+002                   -8.51892275E-003       5.76  <-- SCF
      7  -3.40142684E+002                   -8.46816191E-004       5.77  <-- SCF
      8  -3.40142963E+002                    9.27666374E-005       5.78  <-- SCF
      9  -3.40136884E+002                   -2.02612369E-003       5.79  <-- SCF
     10  -3.40136766E+002                   -3.94988911E-005       5.80  <-- SCF
     11  -3.40136831E+002                    2.19089112E-005       5.81  <-- SCF
     12  -3.40136819E+002                   -4.10038569E-006       5.82  <-- SCF
     13  -3.40136804E+002                   -5.15806109E-006       5.83  <-- SCF
     14  -3.40136792E+002                   -3.76940729E-006       5.84  <-- SCF
     15  -3.40136797E+002                    1.37901889E-006       5.85  <-- SCF
     16  -3.40136793E+002                   -1.19208559E-006       5.86  <-- SCF
     17  -3.40136793E+002                    1.16021523E-008       5.87  <-- SCF
     18  -3.40136793E+002                   -7.28951014E-008       5.88  <-- SCF
     19  -3.40136794E+002                    3.37192483E-007       5.89  <-- SCF
     20  -3.40136793E+002                   -3.23222521E-007       5.90  <-- SCF
     21  -3.40136793E+002                   -1.83867037E-008       5.91  <-- SCF
     22  -3.40136793E+002                    6.11038866E-008       5.92  <-- SCF
     23  -3.40136793E+002                   -4.86432830E-008       5.92  <-- SCF
     24  -3.40136794E+002                    4.62138265E-007       5.94  <-- SCF
     25  -3.40136793E+002                   -4.58576817E-007       5.95  <-- SCF
     26  -3.40136793E+002                   -1.45724851E-008       5.96  <-- SCF
     27  -3.40136793E+002                    4.18740221E-008       5.97  <-- SCF
     28  -3.40136793E+002                   -2.65479773E-008       5.98  <-- SCF
     29  -3.40136793E+002                    2.14887359E-007       5.99  <-- SCF
     30  -3.40136793E+002                   -2.18181486E-007       6.00  <-- SCF
     31  -3.40136793E+002                   -8.89661021E-009       6.01  <-- SCF
     32  -3.40136793E+002                   -1.18032831E-009       6.02  <-- SCF
     33  -3.40136793E+002                    4.57946147E-008       6.03  <-- SCF
     34  -3.40136793E+002                   -1.70260296E-008       6.03  <-- SCF
     35  -3.40136793E+002                    1.09317162E-007       6.05  <-- SCF
     36  -3.40136793E+002                   -1.28377041E-007       6.06  <-- SCF
     37  -3.40136793E+002                   -2.06265820E-009       6.06  <-- SCF
     38  -3.40136793E+002                    2.93631318E-008       6.08  <-- SCF
     39  -3.40136793E+002                   -3.14664415E-008       6.08  <-- SCF
     40  -3.40136793E+002                    2.28982805E-007       6.10  <-- SCF
     41  -3.40136793E+002                   -2.20636465E-007       6.11  <-- SCF
     42  -3.40136793E+002                   -1.65728529E-008       6.12  <-- SCF
     43  -3.40136793E+002                    9.10436320E-008       6.13  <-- SCF
     44  -3.40136793E+002                   -8.62999226E-008       6.13  <-- SCF
     45  -3.40136795E+002                    7.30885370E-007       6.15  <-- SCF
     46  -3.40136793E+002                   -7.23052563E-007       6.16  <-- SCF
     47  -3.40136793E+002                   -1.43402252E-008       6.17  <-- SCF
     48  -3.40136793E+002                    1.23746457E-007       6.18  <-- SCF
     49  -3.40136793E+002                   -9.88337247E-008       6.19  <-- SCF
     50  -3.40136793E+002                   -2.07848216E-008       6.20  <-- SCF
     51  -3.40136793E+002                    5.19192998E-008       6.21  <-- SCF
     52  -3.40136793E+002                   -5.16405235E-008       6.22  <-- SCF
     53  -3.40136794E+002                    2.91943788E-007       6.23  <-- SCF
     54  -3.40136793E+002                   -2.78010626E-007       6.24  <-- SCF
     55  -3.40136793E+002                   -2.16085186E-008       6.25  <-- SCF
     56  -3.40136793E+002                    6.84924910E-008       6.26  <-- SCF
     57  -3.40136793E+002                   -4.60429225E-008       6.27  <-- SCF
     58  -3.40136794E+002                    3.26933991E-007       6.28  <-- SCF
     59  -3.40136793E+002                   -3.29645978E-007       6.29  <-- SCF
     60  -3.40136793E+002                   -1.25186243E-008       6.30  <-- SCF
     61  -3.40136793E+002                    1.38444731E-007       6.31  <-- SCF
     62  -3.40136793E+002                   -1.17861637E-007       6.32  <-- SCF
     63  -3.40136793E+002                   -1.64812379E-008       6.33  <-- SCF
     64  -3.40136793E+002                    5.59782010E-008       6.34  <-- SCF
     65  -3.40136793E+002                   -6.28280882E-008       6.35  <-- SCF
     66  -3.40136794E+002                    4.44708669E-007       6.36  <-- SCF
     67  -3.40136793E+002                   -4.22230533E-007       6.38  <-- SCF
     68  -3.40136793E+002                   -2.71601509E-009       6.39  <-- SCF
     69  -3.40136793E+002                   -8.75773763E-009       6.39  <-- SCF
     70  -3.40136793E+002                    2.88744756E-008       6.41  <-- SCF
     71  -3.40136793E+002                   -2.91663191E-008       6.41  <-- SCF
     72  -3.40136793E+002                    2.31846925E-007       6.43  <-- SCF
     73  -3.40136793E+002                   -2.28383602E-007       6.44  <-- SCF
     74  -3.40136793E+002                    1.38962647E-008       6.45  <-- SCF
     75  -3.40136793E+002                   -2.59119412E-008       6.46  <-- SCF
     76  -3.40136793E+002                    3.29652954E-008       6.47  <-- SCF
     77  -3.40136793E+002                   -1.49530917E-008       6.47  <-- SCF
     78  -3.40136793E+002                    1.57105990E-008       6.48  <-- SCF
     79  -3.40136793E+002                   -2.03071863E-008       6.49  <-- SCF
     80  -3.40136793E+002                    4.32211297E-009       6.50  <-- SCF
     81  -3.40136793E+002                    1.78415575E-009       6.51  <-- SCF
------------------------------------------------------------------------ <-- SCF
 
Final energy =  -340.1367928156     eV
(energy not corrected for finite basis set)
 

Writing analysis data to ./castep-pymuonsuite-test-data/muon-airss-out-castep/castep/Si2_15/Si2_15.castep_bin

Writing model to ./castep-pymuonsuite-test-data/muon-airss-out-castep/castep/Si2_15/Si2_15.check
 
+---------------- MEMORY AND SCRATCH DISK ESTIMATES PER PROCESS --------------+
|                                                     Memory          Disk    |
| Model and support data                               36.0 MB         0.0 MB |
| Electronic energy minimisation requirements           0.2 MB         0.0 MB |
| Geometry minimisation requirements                    0.2 MB         0.0 MB |
|                                               ----------------------------- |
| Approx. total storage required per process           36.3 MB         0.0 MB |
|                                                                             |
| Requirements will fluctuate during execution and may exceed these estimates |
+-----------------------------------------------------------------------------+
 
 
 ************************************** Forces **************************************
 *                                                                                  *
 *                           Cartesian components (eV/A)                            *
 * -------------------------------------------------------------------------------- *
 *                         x                    y                    z              *
 *                                                                                  *
 * Si              1     -0.92507              1.19574             -3.68885         *
 * Si              2     -0.81095             -0.19110              2.25189         *
 * H:mu            1      1.73601             -1.00464              1.43696         *
 *                                                                                  *
 ************************************************************************************
 LBFGS: finished iteration     0 with enthalpy= -3.40136793E+002 eV
  
 +-----------+-----------------+-----------------+------------+-----+ <-- LBFGS
 | Parameter |      value      |    tolerance    |    units   | OK? | <-- LBFGS
 +-----------+-----------------+-----------------+------------+-----+ <-- LBFGS
 |  dE/ion   |   0.000000E+000 |   2.000000E-005 |         eV | No  | <-- LBFGS
 |  |F|max   |   3.986626E+000 |   5.000000E-002 |       eV/A | No  | <-- LBFGS
 |  |dR|max  |   0.000000E+000 |   1.000000E-003 |          A | No  | <-- LBFGS
 +-----------+-----------------+-----------------+------------+-----+ <-- LBFGS
  

================================================================================
 Starting LBFGS iteration          1 ...
================================================================================
  
 +------------+-------------+-------------+-----------------+ <-- min LBFGS
 |    Step    |   lambda    |   F.delta'  |    enthalpy     | <-- min LBFGS
 +------------+-------------+-------------+-----------------+ <-- min LBFGS
 |  previous  |    0.000000 |    0.569887 |     -340.136793 | <-- min LBFGS
 +------------+-------------+-------------+-----------------+ <-- min LBFGS
  

--------------------------------------------------------------------------------
 LBFGS: starting iteration         1 with trial guess (lambda=  1.000000)
--------------------------------------------------------------------------------
 
                           -------------------------------
                                     Cell Contents
                           -------------------------------
 
            xxxxxxxxxxxxxxxxxxxxxxxxxxxxxxxxxxxxxxxxxxxxxxxxxxxxxxxxxxxxxxxxx
            x  Element         Atom        Fractional coordinates of atoms  x
            x                 Number           u          v          w      x
            x---------------------------------------------------------------x
            x  Si                1         0.003827  -0.005615  -0.001516   x
            x  Si                2         0.246855   0.251577   0.252776   x
            x  H:mu              1         0.549900   0.823559   0.432120   x
            xxxxxxxxxxxxxxxxxxxxxxxxxxxxxxxxxxxxxxxxxxxxxxxxxxxxxxxxxxxxxxxxx
 
 
------------------------------------------------------------------------ <-- SCF
SCF loop      Energy                           Energy gain       Timer   <-- SCF
                                               per atom          (sec)   <-- SCF
------------------------------------------------------------------------ <-- SCF
Initial  -3.40330054E+002                                          6.60  <-- SCF
      1  -3.40290340E+002                   -1.32380592E-002       6.61  <-- SCF
      2  -3.40290806E+002                    1.55400135E-004       6.62  <-- SCF
      3  -3.40302322E+002                    3.83870971E-003       6.63  <-- SCF
      4  -3.40277661E+002                   -8.22039681E-003       6.64  <-- SCF
      5  -3.40277585E+002                   -2.55226367E-005       6.65  <-- SCF
      6  -3.40277486E+002                   -3.27995048E-005       6.65  <-- SCF
      7  -3.40277368E+002                   -3.93894961E-005       6.66  <-- SCF
      8  -3.40277362E+002                   -1.91443601E-006       6.67  <-- SCF
      9  -3.40277361E+002                   -3.46375781E-007       6.68  <-- SCF
     10  -3.40277361E+002                   -9.77434485E-008       6.69  <-- SCF
     11  -3.40277361E+002                   -2.72152552E-009       6.70  <-- SCF
     12  -3.40277361E+002                    1.78766825E-010       6.70  <-- SCF
------------------------------------------------------------------------ <-- SCF
 
Final energy =  -340.2773610449     eV
(energy not corrected for finite basis set)
 
 
 ************************************** Forces **************************************
 *                                                                                  *
 *                           Cartesian components (eV/A)                            *
 * -------------------------------------------------------------------------------- *
 *                         x                    y                    z              *
 *                                                                                  *
 * Si              1     -0.82924              0.93155             -3.39055         *
 * Si              2     -1.04731             -0.14953              2.22047         *
 * H:mu            1      1.87655             -0.78202              1.17009         *
 *                                                                                  *
 ************************************************************************************
  
 +------------+-------------+-------------+-----------------+ <-- min LBFGS
 |    Step    |   lambda    |   F.delta'  |    enthalpy     | <-- min LBFGS
 +------------+-------------+-------------+-----------------+ <-- min LBFGS
 |  previous  |    0.000000 |    0.569887 |     -340.136793 | <-- min LBFGS
 | trial step |    1.000000 |    0.533838 |     -340.277361 | <-- min LBFGS
 +------------+-------------+-------------+-----------------+ <-- min LBFGS
  

--------------------------------------------------------------------------------
 LBFGS: improving iteration         1 with line minimization (lambda= 12.737115)
--------------------------------------------------------------------------------
 
                           -------------------------------
                                     Cell Contents
                           -------------------------------
 
            xxxxxxxxxxxxxxxxxxxxxxxxxxxxxxxxxxxxxxxxxxxxxxxxxxxxxxxxxxxxxxxxx
            x  Element         Atom        Fractional coordinates of atoms  x
            x                 Number           u          v          w      x
            x---------------------------------------------------------------x
            x  Si                1         0.048747  -0.071524  -0.019305   x
            x  Si                2         0.209940   0.270093   0.285355   x
            x  H:mu              1         0.541896   0.870952   0.417330   x
            xxxxxxxxxxxxxxxxxxxxxxxxxxxxxxxxxxxxxxxxxxxxxxxxxxxxxxxxxxxxxxxxx
 
 
------------------------------------------------------------------------ <-- SCF
SCF loop      Energy                           Energy gain       Timer   <-- SCF
                                               per atom          (sec)   <-- SCF
------------------------------------------------------------------------ <-- SCF
Initial  -3.42460544E+002                                          6.73  <-- SCF
      1  -3.40346232E+002                   -7.04770709E-001       6.73  <-- SCF
      2  -3.40458547E+002                    3.74384514E-002       6.74  <-- SCF
      3  -3.40375970E+002                   -2.75256621E-002       6.75  <-- SCF
      4  -3.40380125E+002                    1.38483840E-003       6.76  <-- SCF
      5  -3.40379269E+002                   -2.85254267E-004       6.76  <-- SCF
      6  -3.40379037E+002                   -7.72686110E-005       6.77  <-- SCF
      7  -3.40379037E+002                   -8.29792261E-008       6.78  <-- SCF
      8  -3.40379033E+002                   -1.42987614E-006       6.79  <-- SCF
      9  -3.40379033E+002                   -6.13808905E-008       6.80  <-- SCF
     10  -3.40379033E+002                    1.43883367E-008       6.80  <-- SCF
     11  -3.40379033E+002                    4.59310704E-009       6.81  <-- SCF
     12  -3.40379033E+002                    3.49783597E-010       6.81  <-- SCF
------------------------------------------------------------------------ <-- SCF
 
Final energy =  -340.3790326639     eV
(energy not corrected for finite basis set)
 
 
 ************************************** Forces **************************************
 *                                                                                  *
 *                           Cartesian components (eV/A)                            *
 * -------------------------------------------------------------------------------- *
 *                         x                    y                    z              *
 *                                                                                  *
 * Si              1      3.41231             -2.22626              4.48553         *
 * Si              2     -5.22922              2.30291             -4.41138         *
 * H:mu            1      1.81691             -0.07665             -0.07415         *
 *                                                                                  *
 ************************************************************************************
  
 +------------+-------------+-------------+-----------------+ <-- min LBFGS
 |    Step    |   lambda    |   F.delta'  |    enthalpy     | <-- min LBFGS
 +------------+-------------+-------------+-----------------+ <-- min LBFGS
 |  previous  |    0.000000 |    0.569887 |     -340.136793 | <-- min LBFGS
 | trial step |    1.000000 |    0.533838 |     -340.277361 | <-- min LBFGS
 |  line step |   12.737115 |   -0.521161 |     -340.379033 | <-- min LBFGS
 +------------+-------------+-------------+-----------------+ <-- min LBFGS
  

--------------------------------------------------------------------------------
 LBFGS: improving iteration         1 with quad minimization (lambda=  6.939075)
--------------------------------------------------------------------------------
 
                           -------------------------------
                                     Cell Contents
                           -------------------------------
 
            xxxxxxxxxxxxxxxxxxxxxxxxxxxxxxxxxxxxxxxxxxxxxxxxxxxxxxxxxxxxxxxxx
            x  Element         Atom        Fractional coordinates of atoms  x
            x                 Number           u          v          w      x
            x---------------------------------------------------------------x
            x  Si                1         0.026557  -0.038966  -0.010517   x
            x  Si                2         0.228176   0.260946   0.269261   x
            x  H:mu              1         0.545850   0.847540   0.424636   x
            xxxxxxxxxxxxxxxxxxxxxxxxxxxxxxxxxxxxxxxxxxxxxxxxxxxxxxxxxxxxxxxxx
 
 
------------------------------------------------------------------------ <-- SCF
SCF loop      Energy                           Energy gain       Timer   <-- SCF
                                               per atom          (sec)   <-- SCF
------------------------------------------------------------------------ <-- SCF
Initial  -3.39763618E+002                                          6.84  <-- SCF
      1  -3.40740187E+002                    3.25522812E-001       6.84  <-- SCF
      2  -3.40771557E+002                    1.04568525E-002       6.85  <-- SCF
      3  -3.40745604E+002                   -8.65117926E-003       6.86  <-- SCF
      4  -3.40744966E+002                   -2.12708237E-004       6.87  <-- SCF
      5  -3.40744345E+002                   -2.06941899E-004       6.87  <-- SCF
      6  -3.40744385E+002                    1.32931244E-005       6.88  <-- SCF
      7  -3.40744381E+002                   -1.25882939E-006       6.89  <-- SCF
      8  -3.40744382E+002                    3.22453219E-007       6.90  <-- SCF
      9  -3.40744382E+002                   -6.12845546E-008       6.90  <-- SCF
     10  -3.40744382E+002                    5.10211315E-009       6.91  <-- SCF
     11  -3.40744382E+002                   -1.17563960E-009       6.92  <-- SCF
------------------------------------------------------------------------ <-- SCF
 
Final energy =  -340.7443817164     eV
(energy not corrected for finite basis set)
 
 
 ************************************** Forces **************************************
 *                                                                                  *
 *                           Cartesian components (eV/A)                            *
 * -------------------------------------------------------------------------------- *
 *                         x                    y                    z              *
 *                                                                                  *
 * Si              1      0.88444             -0.39528              0.50407         *
 * Si              2     -3.02363              0.66622             -0.64486         *
 * H:mu            1      2.13919             -0.27094              0.14079         *
 *                                                                                  *
 ************************************************************************************
  
 +------------+-------------+-------------+-----------------+ <-- min LBFGS
 |    Step    |   lambda    |   F.delta'  |    enthalpy     | <-- min LBFGS
 +------------+-------------+-------------+-----------------+ <-- min LBFGS
 |  previous  |    0.000000 |    0.569887 |     -340.136793 | <-- min LBFGS
 | trial step |    1.000000 |    0.533838 |     -340.277361 | <-- min LBFGS
 |  line step |   12.737115 |   -0.521161 |     -340.379033 | <-- min LBFGS
 |  quad step |    6.939075 |    0.039238 |     -340.744382 | <-- min LBFGS
 +------------+-------------+-------------+-----------------+ <-- min LBFGS
  
 LBFGS: finished iteration     1 with enthalpy= -3.40744382E+002 eV
  
 +-----------+-----------------+-----------------+------------+-----+ <-- LBFGS
 | Parameter |      value      |    tolerance    |    units   | OK? | <-- LBFGS
 +-----------+-----------------+-----------------+------------+-----+ <-- LBFGS
 |  dE/ion   |   2.025296E-001 |   2.000000E-005 |         eV | No  | <-- LBFGS
 |  |F|max   |   3.162596E+000 |   5.000000E-002 |       eV/A | No  | <-- LBFGS
 |  |dR|max  |   1.441457E-001 |   1.000000E-003 |          A | No  | <-- LBFGS
 +-----------+-----------------+-----------------+------------+-----+ <-- LBFGS
  

================================================================================
 Starting LBFGS iteration          2 ...
================================================================================
  
 +------------+-------------+-------------+-----------------+ <-- min LBFGS
 |    Step    |   lambda    |   F.delta'  |    enthalpy     | <-- min LBFGS
 +------------+-------------+-------------+-----------------+ <-- min LBFGS
 |  previous  |    0.000000 |    0.272972 |     -340.744382 | <-- min LBFGS
 +------------+-------------+-------------+-----------------+ <-- min LBFGS
  

--------------------------------------------------------------------------------
 LBFGS: starting iteration         2 with trial guess (lambda=  1.000000)
--------------------------------------------------------------------------------
 
                           -------------------------------
                                     Cell Contents
                           -------------------------------
 
            xxxxxxxxxxxxxxxxxxxxxxxxxxxxxxxxxxxxxxxxxxxxxxxxxxxxxxxxxxxxxxxxx
            x  Element         Atom        Fractional coordinates of atoms  x
            x                 Number           u          v          w      x
            x---------------------------------------------------------------x
            x  Si                1         0.030725  -0.043252  -0.012979   x
            x  Si                2         0.222960   0.258171   0.275456   x
            x  H:mu              1         0.546897   0.854602   0.420903   x
            xxxxxxxxxxxxxxxxxxxxxxxxxxxxxxxxxxxxxxxxxxxxxxxxxxxxxxxxxxxxxxxxx
 
 
------------------------------------------------------------------------ <-- SCF
SCF loop      Energy                           Energy gain       Timer   <-- SCF
                                               per atom          (sec)   <-- SCF
------------------------------------------------------------------------ <-- SCF
Initial  -3.41042561E+002                                          6.95  <-- SCF
      1  -3.40838746E+002                   -6.79385800E-002       6.96  <-- SCF
      2  -3.40839693E+002                    3.15749088E-004       6.97  <-- SCF
      3  -3.40836362E+002                   -1.11015949E-003       6.97  <-- SCF
      4  -3.40835700E+002                   -2.20771428E-004       6.98  <-- SCF
      5  -3.40835659E+002                   -1.35599994E-005       6.99  <-- SCF
      6  -3.40835654E+002                   -1.63725776E-006       7.00  <-- SCF
      7  -3.40835654E+002                   -9.65774924E-008       7.00  <-- SCF
      8  -3.40835654E+002                   -5.18881868E-008       7.01  <-- SCF
      9  -3.40835654E+002                   -2.59017743E-009       7.02  <-- SCF
     10  -3.40835654E+002                    2.63679053E-009       7.02  <-- SCF
------------------------------------------------------------------------ <-- SCF
 
Final energy =  -340.8356540117     eV
(energy not corrected for finite basis set)
 
 
 ************************************** Forces **************************************
 *                                                                                  *
 *                           Cartesian components (eV/A)                            *
 * -------------------------------------------------------------------------------- *
 *                         x                    y                    z              *
 *                                                                                  *
 * Si              1      0.95751              0.00138              1.06527         *
 * Si              2     -3.02257              0.16959             -1.00227         *
 * H:mu            1      2.06505             -0.17098             -0.06300         *
 *                                                                                  *
 ************************************************************************************
  
 +------------+-------------+-------------+-----------------+ <-- min LBFGS
 |    Step    |   lambda    |   F.delta'  |    enthalpy     | <-- min LBFGS
 +------------+-------------+-------------+-----------------+ <-- min LBFGS
 |  previous  |    0.000000 |    0.272972 |     -340.744382 | <-- min LBFGS
 | trial step |    1.000000 |    0.225836 |     -340.835654 | <-- min LBFGS
 +------------+-------------+-------------+-----------------+ <-- min LBFGS
  

--------------------------------------------------------------------------------
 LBFGS: improving iteration         2 with line minimization (lambda=  5.791055)
--------------------------------------------------------------------------------
 
                           -------------------------------
                                     Cell Contents
                           -------------------------------
 
            xxxxxxxxxxxxxxxxxxxxxxxxxxxxxxxxxxxxxxxxxxxxxxxxxxxxxxxxxxxxxxxxx
            x  Element         Atom        Fractional coordinates of atoms  x
            x                 Number           u          v          w      x
            x---------------------------------------------------------------x
            x  Si                1         0.050694  -0.063790  -0.024774   x
            x  Si                2         0.197971   0.244875   0.305137   x
            x  H:mu              1         0.551917   0.888436   0.403017   x
            xxxxxxxxxxxxxxxxxxxxxxxxxxxxxxxxxxxxxxxxxxxxxxxxxxxxxxxxxxxxxxxxx
 
 
------------------------------------------------------------------------ <-- SCF
SCF loop      Energy                           Energy gain       Timer   <-- SCF
                                               per atom          (sec)   <-- SCF
------------------------------------------------------------------------ <-- SCF
Initial  -3.41978316E+002                                          7.05  <-- SCF
      1  -3.40991427E+002                   -3.28963103E-001       7.05  <-- SCF
      2  -3.41030934E+002                    1.31689805E-002       7.06  <-- SCF
      3  -3.40990496E+002                   -1.34793932E-002       7.07  <-- SCF
      4  -3.40988908E+002                   -5.29052026E-004       7.08  <-- SCF
      5  -3.40988472E+002                   -1.45632835E-004       7.08  <-- SCF
      6  -3.40988489E+002                    5.98443910E-006       7.09  <-- SCF
      7  -3.40988489E+002                   -8.50731906E-008       7.10  <-- SCF
      8  -3.40988489E+002                    7.72347125E-008       7.11  <-- SCF
      9  -3.40988490E+002                    2.19539196E-008       7.11  <-- SCF
     10  -3.40988490E+002                    2.10384143E-009       7.12  <-- SCF
     11  -3.40988490E+002                    5.81737380E-010       7.12  <-- SCF
------------------------------------------------------------------------ <-- SCF
 
Final energy =  -340.9884895210     eV
(energy not corrected for finite basis set)
 
 
 ************************************** Forces **************************************
 *                                                                                  *
 *                           Cartesian components (eV/A)                            *
 * -------------------------------------------------------------------------------- *
 *                         x                    y                    z              *
 *                                                                                  *
 * Si              1      0.62552              1.99661              3.56662         *
 * Si              2     -2.03965             -2.30791             -3.05276         *
 * H:mu            1      1.41413              0.31130             -0.51386         *
 *                                                                                  *
 ************************************************************************************
  
 +------------+-------------+-------------+-----------------+ <-- min LBFGS
 |    Step    |   lambda    |   F.delta'  |    enthalpy     | <-- min LBFGS
 +------------+-------------+-------------+-----------------+ <-- min LBFGS
 |  previous  |    0.000000 |    0.272972 |     -340.744382 | <-- min LBFGS
 | trial step |    1.000000 |    0.225836 |     -340.835654 | <-- min LBFGS
 |  line step |    5.791055 |   -0.060671 |     -340.988490 | <-- min LBFGS
 +------------+-------------+-------------+-----------------+ <-- min LBFGS
  
 LBFGS: finished iteration     2 with enthalpy= -3.40988490E+002 eV
  
 +-----------+-----------------+-----------------+------------+-----+ <-- LBFGS
 | Parameter |      value      |    tolerance    |    units   | OK? | <-- LBFGS
 +-----------+-----------------+-----------------+------------+-----+ <-- LBFGS
 |  dE/ion   |   8.136927E-002 |   2.000000E-005 |         eV | No  | <-- LBFGS
 |  |F|max   |   4.336583E+000 |   5.000000E-002 |       eV/A | No  | <-- LBFGS
 |  |dR|max  |   1.431134E-001 |   1.000000E-003 |          A | No  | <-- LBFGS
 +-----------+-----------------+-----------------+------------+-----+ <-- LBFGS
  

================================================================================
 Starting LBFGS iteration          3 ...
================================================================================
  
 +------------+-------------+-------------+-----------------+ <-- min LBFGS
 |    Step    |   lambda    |   F.delta'  |    enthalpy     | <-- min LBFGS
 +------------+-------------+-------------+-----------------+ <-- min LBFGS
 |  previous  |    0.000000 |    0.735205 |     -340.988490 | <-- min LBFGS
 +------------+-------------+-------------+-----------------+ <-- min LBFGS
  

--------------------------------------------------------------------------------
 LBFGS: starting iteration         3 with trial guess (lambda=  1.000000)
--------------------------------------------------------------------------------
 
                           -------------------------------
                                     Cell Contents
                           -------------------------------
 
            xxxxxxxxxxxxxxxxxxxxxxxxxxxxxxxxxxxxxxxxxxxxxxxxxxxxxxxxxxxxxxxxx
            x  Element         Atom        Fractional coordinates of atoms  x
            x                 Number           u          v          w      x
            x---------------------------------------------------------------x
            x  Si                1         0.047639  -0.055991  -0.021143   x
            x  Si                2         0.196223   0.235145   0.305479   x
            x  H:mu              1         0.556720   0.890366   0.399043   x
            xxxxxxxxxxxxxxxxxxxxxxxxxxxxxxxxxxxxxxxxxxxxxxxxxxxxxxxxxxxxxxxxx
 
 
------------------------------------------------------------------------ <-- SCF
SCF loop      Energy                           Energy gain       Timer   <-- SCF
                                               per atom          (sec)   <-- SCF
------------------------------------------------------------------------ <-- SCF
Initial  -3.41106969E+002                                          7.16  <-- SCF
      1  -3.41261707E+002                    5.15794059E-002       7.16  <-- SCF
      2  -3.41266516E+002                    1.60307609E-003       7.17  <-- SCF
      3  -3.41251127E+002                   -5.12958543E-003       7.18  <-- SCF
      4  -3.41247770E+002                   -1.11919550E-003       7.19  <-- SCF
      5  -3.41247809E+002                    1.30683073E-005       7.20  <-- SCF
      6  -3.41247749E+002                   -2.00802599E-005       7.20  <-- SCF
      7  -3.41247738E+002                   -3.50003686E-006       7.21  <-- SCF
      8  -3.41247735E+002                   -9.78359110E-007       7.22  <-- SCF
      9  -3.41247735E+002                   -5.32258686E-008       7.23  <-- SCF
     10  -3.41247735E+002                   -1.95381909E-009       7.23  <-- SCF
     11  -3.41247735E+002                    6.69227588E-010       7.24  <-- SCF
------------------------------------------------------------------------ <-- SCF
 
Final energy =  -341.2477350606     eV
(energy not corrected for finite basis set)
 
 
 ************************************** Forces **************************************
 *                                                                                  *
 *                           Cartesian components (eV/A)                            *
 * -------------------------------------------------------------------------------- *
 *                         x                    y                    z              *
 *                                                                                  *
 * Si              1     -0.23382              3.02276              2.66223         *
 * Si              2     -1.29170             -3.31487             -1.95106         *
 * H:mu            1      1.52552              0.29210             -0.71116         *
 *                                                                                  *
 ************************************************************************************
  
 +------------+-------------+-------------+-----------------+ <-- min LBFGS
 |    Step    |   lambda    |   F.delta'  |    enthalpy     | <-- min LBFGS
 +------------+-------------+-------------+-----------------+ <-- min LBFGS
 |  previous  |    0.000000 |    0.735205 |     -340.988490 | <-- min LBFGS
 | trial step |    1.000000 |    0.535237 |     -341.247735 | <-- min LBFGS
 +------------+-------------+-------------+-----------------+ <-- min LBFGS
  

--------------------------------------------------------------------------------
 LBFGS: improving iteration         3 with line minimization (lambda=  3.676614)
--------------------------------------------------------------------------------
 
                           -------------------------------
                                     Cell Contents
                           -------------------------------
 
            xxxxxxxxxxxxxxxxxxxxxxxxxxxxxxxxxxxxxxxxxxxxxxxxxxxxxxxxxxxxxxxxx
            x  Element         Atom        Fractional coordinates of atoms  x
            x                 Number           u          v          w      x
            x---------------------------------------------------------------x
            x  Si                1         0.039462  -0.035113  -0.011423   x
            x  Si                2         0.191546   0.209102   0.306396   x
            x  H:mu              1         0.569574   0.895532   0.388407   x
            xxxxxxxxxxxxxxxxxxxxxxxxxxxxxxxxxxxxxxxxxxxxxxxxxxxxxxxxxxxxxxxxx
 
 
------------------------------------------------------------------------ <-- SCF
SCF loop      Energy                           Energy gain       Timer   <-- SCF
                                               per atom          (sec)   <-- SCF
------------------------------------------------------------------------ <-- SCF
Initial  -3.41541871E+002                                          7.27  <-- SCF
      1  -3.41468336E+002                   -2.45115434E-002       7.27  <-- SCF
      2  -3.41542261E+002                    2.46416934E-002       7.28  <-- SCF
      3  -3.41500600E+002                   -1.38870152E-002       7.29  <-- SCF
      4  -3.41496529E+002                   -1.35705774E-003       7.30  <-- SCF
      5  -3.41496310E+002                   -7.30137226E-005       7.30  <-- SCF
      6  -3.41496377E+002                    2.24560368E-005       7.31  <-- SCF
      7  -3.41496370E+002                   -2.25469772E-006       7.32  <-- SCF
      8  -3.41496371E+002                    1.79445124E-007       7.33  <-- SCF
      9  -3.41496371E+002                    1.15773392E-008       7.33  <-- SCF
     10  -3.41496371E+002                    4.37423651E-009       7.34  <-- SCF
     11  -3.41496371E+002                    1.74569551E-009       7.35  <-- SCF
------------------------------------------------------------------------ <-- SCF
 
Final energy =  -341.4963710025     eV
(energy not corrected for finite basis set)
 
 
 ************************************** Forces **************************************
 *                                                                                  *
 *                           Cartesian components (eV/A)                            *
 * -------------------------------------------------------------------------------- *
 *                         x                    y                    z              *
 *                                                                                  *
 * Si              1     -2.17627              3.46461             -0.40376         *
 * Si              2      0.75722             -3.51069              1.12089         *
 * H:mu            1      1.41905              0.04608             -0.71713         *
 *                                                                                  *
 ************************************************************************************
  
 +------------+-------------+-------------+-----------------+ <-- min LBFGS
 |    Step    |   lambda    |   F.delta'  |    enthalpy     | <-- min LBFGS
 +------------+-------------+-------------+-----------------+ <-- min LBFGS
 |  previous  |    0.000000 |    0.735205 |     -340.988490 | <-- min LBFGS
 | trial step |    1.000000 |    0.535237 |     -341.247735 | <-- min LBFGS
 |  line step |    3.676614 |   -0.107052 |     -341.496371 | <-- min LBFGS
 +------------+-------------+-------------+-----------------+ <-- min LBFGS
  
 LBFGS: finished iteration     3 with enthalpy= -3.41496371E+002 eV
  
 +-----------+-----------------+-----------------+------------+-----+ <-- LBFGS
 | Parameter |      value      |    tolerance    |    units   | OK? | <-- LBFGS
 +-----------+-----------------+-----------------+------------+-----+ <-- LBFGS
 |  dE/ion   |   1.692938E-001 |   2.000000E-005 |         eV | No  | <-- LBFGS
 |  |F|max   |   4.111292E+000 |   5.000000E-002 |       eV/A | No  | <-- LBFGS
 |  |dR|max  |   1.476018E-001 |   1.000000E-003 |          A | No  | <-- LBFGS
 +-----------+-----------------+-----------------+------------+-----+ <-- LBFGS
  

================================================================================
 Starting LBFGS iteration          4 ...
================================================================================
  
 +------------+-------------+-------------+-----------------+ <-- min LBFGS
 |    Step    |   lambda    |   F.delta'  |    enthalpy     | <-- min LBFGS
 +------------+-------------+-------------+-----------------+ <-- min LBFGS
 |  previous  |    0.000000 |    0.308708 |     -341.496371 | <-- min LBFGS
 +------------+-------------+-------------+-----------------+ <-- min LBFGS
  

--------------------------------------------------------------------------------
 LBFGS: starting iteration         4 with trial guess (lambda=  1.000000)
--------------------------------------------------------------------------------
 
                           -------------------------------
                                     Cell Contents
                           -------------------------------
 
            xxxxxxxxxxxxxxxxxxxxxxxxxxxxxxxxxxxxxxxxxxxxxxxxxxxxxxxxxxxxxxxxx
            x  Element         Atom        Fractional coordinates of atoms  x
            x                 Number           u          v          w      x
            x---------------------------------------------------------------x
            x  Si                1         0.049612  -0.048868  -0.009306   x
            x  Si                2         0.176277   0.206819   0.314797   x
            x  H:mu              1         0.574693   0.911570   0.377888   x
            xxxxxxxxxxxxxxxxxxxxxxxxxxxxxxxxxxxxxxxxxxxxxxxxxxxxxxxxxxxxxxxxx
 
 
------------------------------------------------------------------------ <-- SCF
SCF loop      Energy                           Energy gain       Timer   <-- SCF
                                               per atom          (sec)   <-- SCF
------------------------------------------------------------------------ <-- SCF
Initial  -3.41958144E+002                                          7.38  <-- SCF
      1  -3.41713852E+002                   -8.14306687E-002       7.38  <-- SCF
      2  -3.41718068E+002                    1.40552528E-003       7.39  <-- SCF
      3  -3.41707611E+002                   -3.48579478E-003       7.40  <-- SCF
      4  -3.41706845E+002                   -2.55250708E-004       7.41  <-- SCF
      5  -3.41706850E+002                    1.84428645E-006       7.42  <-- SCF
      6  -3.41706848E+002                   -8.07901502E-007       7.42  <-- SCF
      7  -3.41706848E+002                   -8.78868467E-008       7.43  <-- SCF
      8  -3.41706847E+002                   -1.01558344E-007       7.44  <-- SCF
      9  -3.41706848E+002                    7.37142869E-009       7.45  <-- SCF
     10  -3.41706848E+002                    1.79242140E-009       7.45  <-- SCF
------------------------------------------------------------------------ <-- SCF
 
Final energy =  -341.7068475262     eV
(energy not corrected for finite basis set)
 
 
 ************************************** Forces **************************************
 *                                                                                  *
 *                           Cartesian components (eV/A)                            *
 * -------------------------------------------------------------------------------- *
 *                         x                    y                    z              *
 *                                                                                  *
 * Si              1     -2.72051              2.89763              0.18728         *
 * Si              2      1.61770             -2.75356              0.42118         *
 * H:mu            1      1.10282             -0.14406             -0.60846         *
 *                                                                                  *
 ************************************************************************************
  
 +------------+-------------+-------------+-----------------+ <-- min LBFGS
 |    Step    |   lambda    |   F.delta'  |    enthalpy     | <-- min LBFGS
 +------------+-------------+-------------+-----------------+ <-- min LBFGS
 |  previous  |    0.000000 |    0.308708 |     -341.496371 | <-- min LBFGS
 | trial step |    1.000000 |    0.178632 |     -341.706848 | <-- min LBFGS
 +------------+-------------+-------------+-----------------+ <-- min LBFGS
  

--------------------------------------------------------------------------------
 LBFGS: improving iteration         4 with line minimization (lambda=  2.373289)
--------------------------------------------------------------------------------
 
                           -------------------------------
                                     Cell Contents
                           -------------------------------
 
            xxxxxxxxxxxxxxxxxxxxxxxxxxxxxxxxxxxxxxxxxxxxxxxxxxxxxxxxxxxxxxxxx
            x  Element         Atom        Fractional coordinates of atoms  x
            x                 Number           u          v          w      x
            x---------------------------------------------------------------x
            x  Si                1         0.063551  -0.067758  -0.006398   x
            x  Si                2         0.155308   0.203684   0.326336   x
            x  H:mu              1         0.581723   0.933594   0.363443   x
            xxxxxxxxxxxxxxxxxxxxxxxxxxxxxxxxxxxxxxxxxxxxxxxxxxxxxxxxxxxxxxxxx
 
 
------------------------------------------------------------------------ <-- SCF
SCF loop      Energy                           Energy gain       Timer   <-- SCF
                                               per atom          (sec)   <-- SCF
------------------------------------------------------------------------ <-- SCF
Initial  -3.42045683E+002                                          7.48  <-- SCF
      1  -3.41825634E+002                   -7.33494927E-002       7.48  <-- SCF
      2  -3.41833319E+002                    2.56163058E-003       7.49  <-- SCF
      3  -3.41809749E+002                   -7.85673803E-003       7.50  <-- SCF
      4  -3.41807918E+002                   -6.10423770E-004       7.51  <-- SCF
      5  -3.41807869E+002                   -1.61583744E-005       7.52  <-- SCF
      6  -3.41807883E+002                    4.78878698E-006       7.53  <-- SCF
      7  -3.41807883E+002                   -1.01565127E-007       7.53  <-- SCF
      8  -3.41807883E+002                   -5.68345255E-008       7.54  <-- SCF
      9  -3.41807883E+002                    2.00058043E-008       7.55  <-- SCF
     10  -3.41807883E+002                    1.97231610E-009       7.55  <-- SCF
     11  -3.41807883E+002                    6.76188135E-010       7.56  <-- SCF
------------------------------------------------------------------------ <-- SCF
 
Final energy =  -341.8078830400     eV
(energy not corrected for finite basis set)
 
 
 ************************************** Forces **************************************
 *                                                                                  *
 *                           Cartesian components (eV/A)                            *
 * -------------------------------------------------------------------------------- *
 *                         x                    y                    z              *
 *                                                                                  *
 * Si              1     -3.29500              2.04697              0.92702         *
 * Si              2      2.74006             -1.59569             -0.61821         *
 * H:mu            1      0.55494             -0.45128             -0.30880         *
 *                                                                                  *
 ************************************************************************************
  
 +------------+-------------+-------------+-----------------+ <-- min LBFGS
 |    Step    |   lambda    |   F.delta'  |    enthalpy     | <-- min LBFGS
 +------------+-------------+-------------+-----------------+ <-- min LBFGS
 |  previous  |    0.000000 |    0.308708 |     -341.496371 | <-- min LBFGS
 | trial step |    1.000000 |    0.178632 |     -341.706848 | <-- min LBFGS
 |  line step |    2.373289 |   -0.007030 |     -341.807883 | <-- min LBFGS
 +------------+-------------+-------------+-----------------+ <-- min LBFGS
  
 LBFGS: finished iteration     4 with enthalpy= -3.41807883E+002 eV
  
 +-----------+-----------------+-----------------+------------+-----+ <-- LBFGS
 | Parameter |      value      |    tolerance    |    units   | OK? | <-- LBFGS
 +-----------+-----------------+-----------------+------------+-----+ <-- LBFGS
 |  dE/ion   |   1.038373E-001 |   2.000000E-005 |         eV | No  | <-- LBFGS
 |  |F|max   |   3.988291E+000 |   5.000000E-002 |       eV/A | No  | <-- LBFGS
 |  |dR|max  |   1.440730E-001 |   1.000000E-003 |          A | No  | <-- LBFGS
 +-----------+-----------------+-----------------+------------+-----+ <-- LBFGS
  

================================================================================
 Starting LBFGS iteration          5 ...
================================================================================

Writing analysis data to ./castep-pymuonsuite-test-data/muon-airss-out-castep/castep/Si2_15/Si2_15.castep_bin

Writing model to ./castep-pymuonsuite-test-data/muon-airss-out-castep/castep/Si2_15/Si2_15.check
  
 +------------+-------------+-------------+-----------------+ <-- min LBFGS
 |    Step    |   lambda    |   F.delta'  |    enthalpy     | <-- min LBFGS
 +------------+-------------+-------------+-----------------+ <-- min LBFGS
 |  previous  |    0.000000 |    0.454172 |     -341.807883 | <-- min LBFGS
 +------------+-------------+-------------+-----------------+ <-- min LBFGS
  

--------------------------------------------------------------------------------
 LBFGS: starting iteration         5 with trial guess (lambda=  1.000000)
--------------------------------------------------------------------------------
 
                           -------------------------------
                                     Cell Contents
                           -------------------------------
 
            xxxxxxxxxxxxxxxxxxxxxxxxxxxxxxxxxxxxxxxxxxxxxxxxxxxxxxxxxxxxxxxxx
            x  Element         Atom        Fractional coordinates of atoms  x
            x                 Number           u          v          w      x
            x---------------------------------------------------------------x
            x  Si                1         0.063916  -0.082502   0.004752   x
            x  Si                2         0.156507   0.221712   0.313744   x
            x  H:mu              1         0.580160   0.930311   0.364884   x
            xxxxxxxxxxxxxxxxxxxxxxxxxxxxxxxxxxxxxxxxxxxxxxxxxxxxxxxxxxxxxxxxx
 
 
------------------------------------------------------------------------ <-- SCF
SCF loop      Energy                           Energy gain       Timer   <-- SCF
                                               per atom          (sec)   <-- SCF
------------------------------------------------------------------------ <-- SCF
Initial  -3.41844651E+002                                          7.64  <-- SCF
      1  -3.41967588E+002                    4.09790877E-002       7.64  <-- SCF
      2  -3.41972883E+002                    1.76477673E-003       7.65  <-- SCF
      3  -3.41969993E+002                   -9.63224420E-004       7.66  <-- SCF
      4  -3.41969596E+002                   -1.32382846E-004       7.67  <-- SCF
      5  -3.41969651E+002                    1.84588165E-005       7.67  <-- SCF
      6  -3.41969657E+002                    1.82613167E-006       7.68  <-- SCF
      7  -3.41969657E+002                    9.27312907E-008       7.69  <-- SCF
      8  -3.41969657E+002                    4.58398743E-009       7.69  <-- SCF
      9  -3.41969657E+002                    2.64251043E-009       7.70  <-- SCF
------------------------------------------------------------------------ <-- SCF
 
Final energy =  -341.9696569492     eV
(energy not corrected for finite basis set)
 
 
 ************************************** Forces **************************************
 *                                                                                  *
 *                           Cartesian components (eV/A)                            *
 * -------------------------------------------------------------------------------- *
 *                         x                    y                    z              *
 *                                                                                  *
 * Si              1     -0.82679             -0.19314              1.76182         *
 * Si              2     -0.16956              0.60715             -1.24245         *
 * H:mu            1      0.99635             -0.41401             -0.51937         *
 *                                                                                  *
 ************************************************************************************
  
 +------------+-------------+-------------+-----------------+ <-- min LBFGS
 |    Step    |   lambda    |   F.delta'  |    enthalpy     | <-- min LBFGS
 +------------+-------------+-------------+-----------------+ <-- min LBFGS
 |  previous  |    0.000000 |    0.454172 |     -341.807883 | <-- min LBFGS
 | trial step |    1.000000 |   -0.059463 |     -341.969657 | <-- min LBFGS
 +------------+-------------+-------------+-----------------+ <-- min LBFGS
  
 LBFGS: finished iteration     5 with enthalpy= -3.41969657E+002 eV
  
 +-----------+-----------------+-----------------+------------+-----+ <-- LBFGS
 | Parameter |      value      |    tolerance    |    units   | OK? | <-- LBFGS
 +-----------+-----------------+-----------------+------------+-----+ <-- LBFGS
 |  dE/ion   |   5.392464E-002 |   2.000000E-005 |         eV | No  | <-- LBFGS
 |  |F|max   |   1.955732E+000 |   5.000000E-002 |       eV/A | No  | <-- LBFGS
 |  |dR|max  |   6.199482E-002 |   1.000000E-003 |          A | No  | <-- LBFGS
 +-----------+-----------------+-----------------+------------+-----+ <-- LBFGS
  

================================================================================
 Starting LBFGS iteration          6 ...
================================================================================
  
 +------------+-------------+-------------+-----------------+ <-- min LBFGS
 |    Step    |   lambda    |   F.delta'  |    enthalpy     | <-- min LBFGS
 +------------+-------------+-------------+-----------------+ <-- min LBFGS
 |  previous  |    0.000000 |    0.268962 |     -341.969657 | <-- min LBFGS
 +------------+-------------+-------------+-----------------+ <-- min LBFGS
  

--------------------------------------------------------------------------------
 LBFGS: starting iteration         6 with trial guess (lambda=  1.000000)
--------------------------------------------------------------------------------
 
                           -------------------------------
                                     Cell Contents
                           -------------------------------
 
            xxxxxxxxxxxxxxxxxxxxxxxxxxxxxxxxxxxxxxxxxxxxxxxxxxxxxxxxxxxxxxxxx
            x  Element         Atom        Fractional coordinates of atoms  x
            x                 Number           u          v          w      x
            x---------------------------------------------------------------x
            x  Si                1         0.057358  -0.076599   0.012601   x
            x  Si                2         0.158725   0.216969   0.309226   x
            x  H:mu              1         0.584499   0.929151   0.361553   x
            xxxxxxxxxxxxxxxxxxxxxxxxxxxxxxxxxxxxxxxxxxxxxxxxxxxxxxxxxxxxxxxxx
 
 
------------------------------------------------------------------------ <-- SCF
SCF loop      Energy                           Energy gain       Timer   <-- SCF
                                               per atom          (sec)   <-- SCF
------------------------------------------------------------------------ <-- SCF
Initial  -3.42032780E+002                                          7.73  <-- SCF
      1  -3.42024085E+002                   -2.89837671E-003       7.74  <-- SCF
      2  -3.42025974E+002                    6.29688191E-004       7.75  <-- SCF
      3  -3.42021059E+002                   -1.63803520E-003       7.75  <-- SCF
      4  -3.42020608E+002                   -1.50412489E-004       7.76  <-- SCF
      5  -3.42020642E+002                    1.11983299E-005       7.77  <-- SCF
      6  -3.42020643E+002                    3.50500388E-007       7.77  <-- SCF
      7  -3.42020643E+002                    9.60032956E-008       7.78  <-- SCF
      8  -3.42020643E+002                   -1.11944124E-008       7.78  <-- SCF
      9  -3.42020643E+002                    2.53252734E-009       7.79  <-- SCF
     10  -3.42020643E+002                    3.77319650E-010       7.80  <-- SCF
------------------------------------------------------------------------ <-- SCF
 
Final energy =  -342.0206431687     eV
(energy not corrected for finite basis set)
 
 
 ************************************** Forces **************************************
 *                                                                                  *
 *                           Cartesian components (eV/A)                            *
 * -------------------------------------------------------------------------------- *
 *                         x                    y                    z              *
 *                                                                                  *
 * Si              1     -1.44447             -0.77237              0.02304         *
 * Si              2      0.47736              1.14480              0.51436         *
 * H:mu            1      0.96711             -0.37244             -0.53740         *
 *                                                                                  *
 ************************************************************************************
  
 +------------+-------------+-------------+-----------------+ <-- min LBFGS
 |    Step    |   lambda    |   F.delta'  |    enthalpy     | <-- min LBFGS
 +------------+-------------+-------------+-----------------+ <-- min LBFGS
 |  previous  |    0.000000 |    0.268962 |     -341.969657 | <-- min LBFGS
 | trial step |    1.000000 |   -0.021608 |     -342.020643 | <-- min LBFGS
 +------------+-------------+-------------+-----------------+ <-- min LBFGS
  
 LBFGS: finished iteration     6 with enthalpy= -3.42020643E+002 eV
  
 +-----------+-----------------+-----------------+------------+-----+ <-- LBFGS
 | Parameter |      value      |    tolerance    |    units   | OK? | <-- LBFGS
 +-----------+-----------------+-----------------+------------+-----+ <-- LBFGS
 |  dE/ion   |   1.699541E-002 |   2.000000E-005 |         eV | No  | <-- LBFGS
 |  |F|max   |   1.638161E+000 |   5.000000E-002 |       eV/A | No  | <-- LBFGS
 |  |dR|max  |   3.727344E-002 |   1.000000E-003 |          A | No  | <-- LBFGS
 +-----------+-----------------+-----------------+------------+-----+ <-- LBFGS
  

================================================================================
 Starting LBFGS iteration          7 ...
================================================================================
  
 +------------+-------------+-------------+-----------------+ <-- min LBFGS
[...]
 
Final energy =  -342.1565131485     eV
(energy not corrected for finite basis set)
 
 
 ************************************** Forces **************************************
 *                                                                                  *
 *                           Cartesian components (eV/A)                            *
 * -------------------------------------------------------------------------------- *
 *                         x                    y                    z              *
 *                                                                                  *
 * Si              1     -0.04518              0.06359              0.04977         *
 * Si              2      0.07211              0.01167             -0.09890         *
 * H:mu            1     -0.02693             -0.07526              0.04913         *
 *                                                                                  *
 ************************************************************************************
  
 +------------+-------------+-------------+-----------------+ <-- min LBFGS
 |    Step    |   lambda    |   F.delta'  |    enthalpy     | <-- min LBFGS
 +------------+-------------+-------------+-----------------+ <-- min LBFGS
 |  previous  |    0.000000 |    0.007656 |     -342.156171 | <-- min LBFGS
 | trial step |    1.000000 |    0.005475 |     -342.156324 | <-- min LBFGS
 |  line step |    3.509549 |    0.000083 |     -342.156513 | <-- min LBFGS
 +------------+-------------+-------------+-----------------+ <-- min LBFGS
  
 LBFGS: finished iteration    10 with enthalpy= -3.42156513E+002 eV
  
 +-----------+-----------------+-----------------+------------+-----+ <-- LBFGS
 | Parameter |      value      |    tolerance    |    units   | OK? | <-- LBFGS
 +-----------+-----------------+-----------------+------------+-----+ <-- LBFGS
 |  dE/ion   |   1.141626E-004 |   2.000000E-005 |         eV | No  | <-- LBFGS
 |  |F|max   |   1.229464E-001 |   5.000000E-002 |       eV/A | No  | <-- LBFGS
 |  |dR|max  |   6.792758E-003 |   1.000000E-003 |          A | No  | <-- LBFGS
 +-----------+-----------------+-----------------+------------+-----+ <-- LBFGS
  

================================================================================
 Starting LBFGS iteration         11 ...
================================================================================
  
 +------------+-------------+-------------+-----------------+ <-- min LBFGS
 |    Step    |   lambda    |   F.delta'  |    enthalpy     | <-- min LBFGS
 +------------+-------------+-------------+-----------------+ <-- min LBFGS
 |  previous  |    0.000000 |    0.012625 |     -342.156513 | <-- min LBFGS
 +------------+-------------+-------------+-----------------+ <-- min LBFGS
  

--------------------------------------------------------------------------------
 LBFGS: starting iteration        11 with trial guess (lambda=  1.000000)
--------------------------------------------------------------------------------
 
                           -------------------------------
                                     Cell Contents
                           -------------------------------
 
            xxxxxxxxxxxxxxxxxxxxxxxxxxxxxxxxxxxxxxxxxxxxxxxxxxxxxxxxxxxxxxxxx
            x  Element         Atom        Fractional coordinates of atoms  x
            x                 Number           u          v          w      x
            x---------------------------------------------------------------x
            x  Si                1         0.044207  -0.091576   0.028647   x
            x  Si                2         0.155728   0.204621   0.324496   x
            x  H:mu              1         0.600647   0.956476   0.330237   x
            xxxxxxxxxxxxxxxxxxxxxxxxxxxxxxxxxxxxxxxxxxxxxxxxxxxxxxxxxxxxxxxxx
 
 
------------------------------------------------------------------------ <-- SCF
SCF loop      Energy                           Energy gain       Timer   <-- SCF
                                               per atom          (sec)   <-- SCF
------------------------------------------------------------------------ <-- SCF
Initial  -3.42170050E+002                                          8.38  <-- SCF
      1  -3.42156851E+002                   -4.39964331E-003       8.39  <-- SCF
      2  -3.42156857E+002                    1.75106710E-006       8.39  <-- SCF
      3  -3.42156812E+002                   -1.46752762E-005       8.40  <-- SCF
      4  -3.42156809E+002                   -1.01817141E-006       8.41  <-- SCF
      5  -3.42156809E+002                    9.34517879E-012       8.41  <-- SCF
      6  -3.42156809E+002                   -1.02278148E-009       8.42  <-- SCF
------------------------------------------------------------------------ <-- SCF
 
Final energy =  -342.1568094213     eV
(energy not corrected for finite basis set)
 
 
 ************************************** Forces **************************************
 *                                                                                  *
 *                           Cartesian components (eV/A)                            *
 * -------------------------------------------------------------------------------- *
 *                         x                    y                    z              *
 *                                                                                  *
 * Si              1     -0.02553              0.03740              0.03111         *
 * Si              2      0.04221              0.00632             -0.06587         *
 * H:mu            1     -0.01668             -0.04373              0.03475         *
 *                                                                                  *
 ************************************************************************************
  
 +------------+-------------+-------------+-----------------+ <-- min LBFGS
 |    Step    |   lambda    |   F.delta'  |    enthalpy     | <-- min LBFGS
 +------------+-------------+-------------+-----------------+ <-- min LBFGS
 |  previous  |    0.000000 |    0.012625 |     -342.156513 | <-- min LBFGS
 | trial step |    1.000000 |    0.007703 |     -342.156809 | <-- min LBFGS
 +------------+-------------+-------------+-----------------+ <-- min LBFGS
  

--------------------------------------------------------------------------------
 LBFGS: improving iteration        11 with line minimization (lambda=  2.565314)
--------------------------------------------------------------------------------
 
                           -------------------------------
                                     Cell Contents
                           -------------------------------
 
            xxxxxxxxxxxxxxxxxxxxxxxxxxxxxxxxxxxxxxxxxxxxxxxxxxxxxxxxxxxxxxxxx
            x  Element         Atom        Fractional coordinates of atoms  x
            x                 Number           u          v          w      x
            x---------------------------------------------------------------x
            x  Si                1         0.044343  -0.092122   0.029168   x
            x  Si                2         0.156228   0.204140   0.324514   x
            x  H:mu              1         0.600012   0.957503   0.329698   x
            xxxxxxxxxxxxxxxxxxxxxxxxxxxxxxxxxxxxxxxxxxxxxxxxxxxxxxxxxxxxxxxxx
 
 
------------------------------------------------------------------------ <-- SCF
SCF loop      Energy                           Energy gain       Timer   <-- SCF
                                               per atom          (sec)   <-- SCF
------------------------------------------------------------------------ <-- SCF
Initial  -3.42177749E+002                                          8.44  <-- SCF
      1  -3.42157072E+002                   -6.89219624E-003       8.45  <-- SCF
      2  -3.42157085E+002                    4.28090601E-006       8.45  <-- SCF
      3  -3.42156977E+002                   -3.61258865E-005       8.46  <-- SCF
      4  -3.42156969E+002                   -2.53771456E-006       8.47  <-- SCF
      5  -3.42156969E+002                    1.54749716E-009       8.47  <-- SCF
      6  -3.42156969E+002                   -4.13553164E-009       8.48  <-- SCF
------------------------------------------------------------------------ <-- SCF
 
Final energy =  -342.1569690619     eV
(energy not corrected for finite basis set)
 
 
 ************************************** Forces **************************************
 *                                                                                  *
 *                           Cartesian components (eV/A)                            *
 * -------------------------------------------------------------------------------- *
 *                         x                    y                    z              *
 *                                                                                  *
 * Si              1      0.00510             -0.00340              0.00185         *
 * Si              2     -0.00531             -0.00311             -0.01357         *
 * H:mu            1      0.00021              0.00651              0.01172         *
 *                                                                                  *
 ************************************************************************************
  
 +------------+-------------+-------------+-----------------+ <-- min LBFGS
 |    Step    |   lambda    |   F.delta'  |    enthalpy     | <-- min LBFGS
 +------------+-------------+-------------+-----------------+ <-- min LBFGS
 |  previous  |    0.000000 |    0.012625 |     -342.156513 | <-- min LBFGS
 | trial step |    1.000000 |    0.007703 |     -342.156809 | <-- min LBFGS
 |  line step |    2.565314 |   -0.000097 |     -342.156969 | <-- min LBFGS
 +------------+-------------+-------------+-----------------+ <-- min LBFGS
  
 LBFGS: finished iteration    11 with enthalpy= -3.42156969E+002 eV
  
 +-----------+-----------------+-----------------+------------+-----+ <-- LBFGS
 | Parameter |      value      |    tolerance    |    units   | OK? | <-- LBFGS
 +-----------+-----------------+-----------------+------------+-----+ <-- LBFGS
 |  dE/ion   |   1.519711E-004 |   2.000000E-005 |         eV | No  | <-- LBFGS
 |  |F|max   |   1.490061E-002 |   5.000000E-002 |       eV/A | Yes | <-- LBFGS
 |  |dR|max  |   5.877913E-003 |   1.000000E-003 |          A | No  | <-- LBFGS
 +-----------+-----------------+-----------------+------------+-----+ <-- LBFGS
  

================================================================================
 Starting LBFGS iteration         12 ...
================================================================================
  
 +------------+-------------+-------------+-----------------+ <-- min LBFGS
 |    Step    |   lambda    |   F.delta'  |    enthalpy     | <-- min LBFGS
 +------------+-------------+-------------+-----------------+ <-- min LBFGS
 |  previous  |    0.000000 |    0.001408 |     -342.156969 | <-- min LBFGS
 +------------+-------------+-------------+-----------------+ <-- min LBFGS
  

--------------------------------------------------------------------------------
 LBFGS: starting iteration        12 with trial guess (lambda=  1.000000)
--------------------------------------------------------------------------------
 
                           -------------------------------
                                     Cell Contents
                           -------------------------------
 
            xxxxxxxxxxxxxxxxxxxxxxxxxxxxxxxxxxxxxxxxxxxxxxxxxxxxxxxxxxxxxxxxx
            x  Element         Atom        Fractional coordinates of atoms  x
            x                 Number           u          v          w      x
            x---------------------------------------------------------------x
            x  Si                1         0.044360  -0.092061   0.029127   x
            x  Si                2         0.156235   0.204131   0.324480   x
            x  H:mu              1         0.599988   0.957451   0.329773   x
            xxxxxxxxxxxxxxxxxxxxxxxxxxxxxxxxxxxxxxxxxxxxxxxxxxxxxxxxxxxxxxxxx
 
 
------------------------------------------------------------------------ <-- SCF
SCF loop      Energy                           Energy gain       Timer   <-- SCF
                                               per atom          (sec)   <-- SCF
------------------------------------------------------------------------ <-- SCF
Initial  -3.42155234E+002                                          8.51  <-- SCF
      1  -3.42156972E+002                    5.79494772E-004       8.52  <-- SCF
      2  -3.42156973E+002                    2.43718235E-008       8.52  <-- SCF
      3  -3.42156972E+002                   -9.64328999E-008       8.53  <-- SCF
      4  -3.42156972E+002                   -3.48120800E-009       8.54  <-- SCF
      5  -3.42156972E+002                    4.49793123E-010       8.54  <-- SCF
------------------------------------------------------------------------ <-- SCF
 
Final energy =  -342.1569722703     eV
(energy not corrected for finite basis set)
 
 
 ************************************** Forces **************************************
 *                                                                                  *
 *                           Cartesian components (eV/A)                            *
 * -------------------------------------------------------------------------------- *
 *                         x                    y                    z              *
 *                                                                                  *
 * Si              1     -0.00370             -0.00438             -0.00267         *
 * Si              2      0.00157             -0.00197             -0.00737         *
 * H:mu            1      0.00213              0.00635              0.01005         *
 *                                                                                  *
 ************************************************************************************
  
 +------------+-------------+-------------+-----------------+ <-- min LBFGS
 |    Step    |   lambda    |   F.delta'  |    enthalpy     | <-- min LBFGS
 +------------+-------------+-------------+-----------------+ <-- min LBFGS
 |  previous  |    0.000000 |    0.001408 |     -342.156969 | <-- min LBFGS
 | trial step |    1.000000 |    0.000426 |     -342.156972 | <-- min LBFGS
 +------------+-------------+-------------+-----------------+ <-- min LBFGS
  
 LBFGS: finished iteration    12 with enthalpy= -3.42156972E+002 eV
  
 +-----------+-----------------+-----------------+------------+-----+ <-- LBFGS
 | Parameter |      value      |    tolerance    |    units   | OK? | <-- LBFGS
 +-----------+-----------------+-----------------+------------+-----+ <-- LBFGS
 |  dE/ion   |   1.069477E-006 |   2.000000E-005 |         eV | Yes | <-- LBFGS
 |  |F|max   |   1.207378E-002 |   5.000000E-002 |       eV/A | Yes | <-- LBFGS
 |  |dR|max  |   2.556237E-004 |   1.000000E-003 |          A | Yes | <-- LBFGS
 +-----------+-----------------+-----------------+------------+-----+ <-- LBFGS
  
 LBFGS: Geometry optimization completed successfully.

================================================================================
 LBFGS: Final Configuration:
================================================================================
 
                           -------------------------------
                                     Cell Contents
                           -------------------------------
 
            xxxxxxxxxxxxxxxxxxxxxxxxxxxxxxxxxxxxxxxxxxxxxxxxxxxxxxxxxxxxxxxxx
            x  Element         Atom        Fractional coordinates of atoms  x
            x                 Number           u          v          w      x
            x---------------------------------------------------------------x
            x  Si                1         0.044360  -0.092061   0.029127   x
            x  Si                2         0.156235   0.204131   0.324480   x
            x  H:mu              1         0.599988   0.957451   0.329773   x
            xxxxxxxxxxxxxxxxxxxxxxxxxxxxxxxxxxxxxxxxxxxxxxxxxxxxxxxxxxxxxxxxx
 
 
 LBFGS: Final Enthalpy     = -3.42156972E+002 eV
 LBFGS: Final <frequency>  =     808.02715 cm-1
 
 ************************************** Forces **************************************
 *                                                                                  *
 *                           Cartesian components (eV/A)                            *
 * -------------------------------------------------------------------------------- *
 *                         x                    y                    z              *
 *                                                                                  *
 * Si              1     -0.00370             -0.00438             -0.00267         *
 * Si              2      0.00157             -0.00197             -0.00737         *
 * H:mu            1      0.00213              0.00635              0.01005         *
 *                                                                                  *
 ************************************************************************************
 
 Pseudo atomic calculation performed for Si 3s2 3p2
 
 Converged in 21 iterations to a total energy of -162.9266 eV
 
 Pseudo atomic calculation performed for H:mu 1s1
 
 Converged in 18 iterations to a total energy of -11.6786 eV
Charge spilling parameter for spin component 1 = 2.32%
 
            Orbital Populations       
     Ion    Atom   Orbital             Charge
  -------------------------------------------
     Si     1      S                    0.980
     Si     1      Px                   0.897
     Si     1      Py                   0.658
     Si     1      Pz                   0.871
     Si     2      S                    0.984
     Si     2      Px                   0.718
     Si     2      Py                   0.910
     Si     2      Pz                   0.769
   H:mu     1      S                    1.214
  -------------------------------------------
                           Total:       8.000
  -------------------------------------------
 
     Atomic Populations (Mulliken)
     -----------------------------
Species          Ion     s      p      d      f     Total  Charge (e)
=====================================================================
  Si              1     0.98   2.43   0.00   0.00   3.41     0.59
  Si              2     0.98   2.40   0.00   0.00   3.38     0.62
  H:mu            1     1.21   0.00   0.00   0.00   1.21    -0.21
=====================================================================
 
                 Bond                   Population      Length (A)
======================================================================
              Si 2 -- H:mu 1                -1.73        1.47328
              Si 1 -- H:mu 1                -1.77        1.47435
              Si 1 -- Si 2                   2.84        2.22646
======================================================================
 

Writing analysis data to ./castep-pymuonsuite-test-data/muon-airss-out-castep/castep/Si2_15/Si2_15.castep_bin

Writing model to ./castep-pymuonsuite-test-data/muon-airss-out-castep/castep/Si2_15/Si2_15.check
 
 A BibTeX formatted list of references used in this run has been written to 
 ./castep-pymuonsuite-test-data/muon-airss-out-castep/castep/Si2_15/Si2_15.bib
 
Initialisation time =      5.30 s
Calculation time    =      3.51 s
Finalisation time   =      0.13 s
Total time          =      8.93 s
Peak Memory Use     = 814164 kB
  
Overall parallel efficiency rating: Terrible (33%)                              
  
Data was distributed by:-
G-vector (8-way); efficiency rating: Terrible (34%)                             
  
Parallel notes:
1) Calculation only took 8.8 s, so efficiency estimates may be inaccurate.      
