 +-------------------------------------------------+
 |                                                 |
 |      CCC   AA    SSS  TTTTT  EEEEE  PPPP        |
 |     C     A  A  S       T    E      P   P       |
 |     C     AAAA   SS     T    EEE    PPPP        |
 |     C     A  A     S    T    E      P           |
 |      CCC  A  A  SSS     T    EEEEE  P           |
 |                                                 |
 +-------------------------------------------------+
 |                                                 |
 | Welcome to Academic Release CASTEP version 19.11|          
 | Ab Initio Total Energy Program                  |
 |                                                 |
 | Authors:                                        |
 | M. Segall, M. Probert, C. Pickard, P. Hasnip,   |
 | S. Clark, K. Refson, J. R. Yates, M. Payne      |
 |                                                 |
 | Contributors:                                   |
 | P. Lindan, P. Haynes, J. White, V. Milman,      |
 | N. Govind, M. Gibson, P. Tulip, V. Cocula,      |
 | B. Montanari, D. Quigley, M. Glover,            |
 | L. Bernasconi, A. Perlov, M. Plummer,           |
 | E. McNellis, J. Meyer, J. Gale, D. Jochym       |
 | J. Aarons, B. Walker, R. Gillen, D. Jones       |
 | T. Green, I. J. Bush, C. J. Armstrong,          |
 | E. J. Higgins, E. L. Brown, M. S. McFly,        |
 | J. Wilkins, B-C. Shih, P. J. P. Byrne           |
 |                                                 |
 | Copyright (c) 2000 - 2018                       |
 |                                                 |
 |     Distributed under the terms of an           |
 |     Agreement between the United Kingdom        |
 |     Car-Parrinello (UKCP) Consortium,           |
 |     Daresbury Laboratory and Accelrys, Inc.     |
 |                                                 |
 | Please cite                                     |
 |                                                 |
 |     "First principles methods using CASTEP"     |
 |                                                 |
 |         Zeitschrift fuer Kristallographie       |
 |           220(5-6) pp. 567-570 (2005)           |
 |                                                 |
 | S. J. Clark, M. D. Segall, C. J. Pickard,       |
 | P. J. Hasnip, M. J. Probert, K. Refson,         |
 | M. C. Payne                                     |
 |                                                 |
 |       in all publications arising from          |
 |              your use of CASTEP                 |
 |                                                 |
 +-------------------------------------------------+
 |                                                 |
 |              http://www.castep.org              |
 |                                                 |
 +-------------------------------------------------+
 
 
 
 Compiled for linux_x86_64_ifort18 on Fri, 05 Jul 2019 15:43:56 +0100
 from code version 
 0a9e5daac2f4+ Castep191_branch Wed, 03 Jul 2019 08:43:28 +0000
 Compiler: Intel Fortran 18.0.3.222; Optimisation: fast
 MATHLIBS: Intel MKL(2018.0.3) (LAPACK version 3.7.0)
 FFT Lib : default
 Fundamental constants values: CODATA 2014
 
 Run started: Tue, 17 Nov 2020 15:09:25 +0000
 
 Atomic calculation performed for Si: 1s2 2s2 2p6 3s2 3p2
 
 Converged in 55 iterations to an ae energy of -7859.183 eV
 
   ============================================================                
   | Pseudopotential Report - Date of generation 17-11-2020   |                
   ------------------------------------------------------------                
   | Element: Si Ionic charge:  4.00 Level of theory: LDA     |                
   | Atomic Solver: Koelling-Harmon                           |                
   |                                                          |                
   |               Reference Electronic Structure             |                
   |         Orbital         Occupation         Energy        |                
   |            3s              2.000           -0.400        |                
   |            3p              2.000           -0.153        |                
   |                                                          |                
   |                 Pseudopotential Definition               |                
   |        Beta     l      e      Rc     scheme   norm       |                
   |          1      0   -0.400   1.797     qc      0         |                
   |          2      0    0.250   1.797     qc      0         |                
   |          3      1   -0.153   1.797     qc      0         |                
   |          4      1    0.250   1.797     qc      0         |                
   |          5      2    0.000   1.797     qc      0         |                
   |          6      2    0.250   1.797     qc      0         |                
   |         loc     3    0.000   1.797     pn      0         |                
   |                                                          |                
   | Augmentation charge Rinner = 1.255                       |                
   | Partial core correction Rc = 1.255                       |                
   ------------------------------------------------------------                
   | "3|1.8|5|6|7|30:31:32"                                   |                
   ------------------------------------------------------------                
   |      Author: Chris J. Pickard, Cambridge University      |                
   ============================================================                
 
 Atomic calculation performed for H:mu: 1s1
 
 Converged in 41 iterations to an ae energy of -12.134 eV
 
   ============================================================                
   | Pseudopotential Report - Date of generation 17-11-2020   |                
   ------------------------------------------------------------                
   | Element: H Ionic charge:  1.00 Level of theory: LDA      |                
   | Atomic Solver: Koelling-Harmon                           |                
   |                                                          |                
   |               Reference Electronic Structure             |                
   |         Orbital         Occupation         Energy        |                
   |            1s              1.000           -0.234        |                
   |                                                          |                
   |                 Pseudopotential Definition               |                
   |        Beta     l      e      Rc     scheme   norm       |                
   |          1      0   -0.234   0.599     qc      0         |                
   |          2      0    0.250   0.599     qc      0         |                
   |         loc     1    0.000   0.599     pn      0         |                
   |                                                          |                
   | Augmentation charge Rinner = 0.421                       |                
   | No partial core correction                               |                
   ------------------------------------------------------------                
   | "1|0.6|13|15|17|10(qc=8)"                                |                
   ------------------------------------------------------------                
   |      Author: Chris J. Pickard, Cambridge University      |                
   ============================================================                
 
 Pseudo atomic calculation performed for Si 3s2 3p2
 
 Converged in 21 iterations to a total energy of -162.9266 eV
 
 Pseudo atomic calculation performed for H:mu 1s1
 
 Converged in 18 iterations to a total energy of -11.6786 eV
 Calculation parallelised over 8 processes.
 Data is distributed by G-vector(8-way)

 ************************************ Title ************************************
 

 ***************************** General Parameters ******************************
  
 output verbosity                               : normal  (1)
 write checkpoint data to                       : ./castep-pymuonsuite-test-data/muon-airss-out-castep/castep/Si2_23/Si2_23.check
 type of calculation                            : geometry optimization
 stress calculation                             : off
 density difference calculation                 : off
 electron localisation func (ELF) calculation   : off
 Hirshfeld analysis                             : off
 unlimited duration calculation
 timing information                             : on
 memory usage estimate                          : on
 write extra output files                       : on
 write final potential to formatted file        : off
 write final density to formatted file          : on
 write structure in CELL formatted file         : on
 write BibTeX reference list                    : on
 write OTFG pseudopotential files               : on
 write electrostatic potential file             : on
 write bands file                               : on
 checkpoint writing                             : both castep_bin and check files
  
 output         length unit                     : A
 output           mass unit                     : amu
 output           time unit                     : ps
 output         charge unit                     : e
 output           spin unit                     : hbar/2
 output         energy unit                     : eV
 output          force unit                     : eV/A
 output       velocity unit                     : A/ps
 output       pressure unit                     : GPa
 output     inv_length unit                     : 1/A
 output      frequency unit                     : cm-1
 output force constant unit                     : eV/A**2
 output         volume unit                     : A**3
 output   IR intensity unit                     : (D/A)**2/amu
 output         dipole unit                     : D
 output         efield unit                     : eV/A/e
 output        entropy unit                     : J/mol/K
  
 wavefunctions paging                           : none
 random number generator seed                   : randomised (150925862)
 data distribution                              : optimal for this architecture
 optimization strategy                          : maximize speed(+++)

 *********************** Exchange-Correlation Parameters ***********************
  
 using functional                               : Local Density Approximation
 relativistic treatment                         : Koelling-Harmon
 DFT+D: Semi-empirical dispersion correction    : off

 ************************* Pseudopotential Parameters **************************
  
 pseudopotential representation                 : reciprocal space
 <beta|phi> representation                      : reciprocal space
 spin-orbit coupling                            : off

 **************************** Basis Set Parameters *****************************
  
 plane wave basis set cut-off                   :   150.0000   eV
 size of standard grid                          :     2.0000
 size of   fine   gmax                          :    12.5491   1/A
 finite basis set correction                    : none

 **************************** Electronic Parameters ****************************
  
 number of  electrons                           :  8.000    
 net charge of system                           : +1.000    
 treating system as non-spin-polarized
 number of bands                                :          4

 ********************* Electronic Minimization Parameters **********************
  
 Method: Treating system as non-metallic,
         and number of  SD  steps               :          1
         and number of  CG  steps               :          4
  
 total energy / atom convergence tol.           : 0.1000E-07   eV
 eigen-energy convergence tolerance             : 0.7500E-08   eV
 max force / atom convergence tol.              : ignored
 convergence tolerance window                   :          3   cycles
 max. number of SCF cycles                      :        200
 periodic dipole correction                     : NONE

 ************************** Density Mixing Parameters **************************
  
 density-mixing scheme                          : Broyden
 max. length of mixing history                  :         20
 charge density mixing amplitude                : 0.8000    
 cut-off energy for mixing                      :  150.0       eV

 *********************** Population Analysis Parameters ************************
  
 Population analysis with cutoff                :  3.000       A
 Population analysis output                     : summary and pdos components

 ********************** Geometry Optimization Parameters ***********************
  
 optimization method                            : LBFGS
 max. no. of LBFGS updates                      : unbounded
 variable cell method                           : fixed basis quality
 max. number of steps                           :        300
 estimated bulk modulus                         :  500.0       GPa
 estimated <frequency>                          :  1668.       cm-1
 geom line minimiser                            : on
 with line minimiser tolerance                  :     0.4000
 total energy convergence tolerance             : 0.2000E-04   eV/atom
        max ionic |force| tolerance             : 0.5000E-01   eV/A
 max ionic |displacement| tolerance             : 0.1000E-02   A
   max |stress component| tolerance             : 0.1000       GPa
 convergence tolerance window                   :          2   steps
 backup results every                           :          5   steps
 write geom trajectory file                     : on

 *******************************************************************************
  
 
                           -------------------------------
                                      Unit Cell
                           -------------------------------
        Real Lattice(A)                      Reciprocal Lattice(1/A)
     2.6954640     2.6954640     0.0000000        1.165510893   1.165510893  -1.165510893
     2.6954640     0.0000000     2.6954640        1.165510893  -1.165510893   1.165510893
     0.0000000     2.6954640     2.6954640       -1.165510893   1.165510893   1.165510893
 
                       Lattice parameters(A)       Cell Angles
                    a =      3.811962          alpha =   60.000000
                    b =      3.811962          beta  =   60.000000
                    c =      3.811962          gamma =   60.000000
 
                       Current cell volume =            39.167928       A**3
                                   density =             1.459841   AMU/A**3
                                           =             2.424123     g/cm^3
 
                           -------------------------------
                                     Cell Contents
                           -------------------------------
                         Total number of ions in cell =    3
                      Total number of species in cell =    2
                        Max number of any one species =    2
 
            xxxxxxxxxxxxxxxxxxxxxxxxxxxxxxxxxxxxxxxxxxxxxxxxxxxxxxxxxxxx
            x  Element    Atom        Fractional coordinates of atoms  x
            x            Number           u          v          w      x
            x----------------------------------------------------------x
            x  Si           1         0.000000   0.000000   0.000000   x 
            x  Si           2         0.250000   0.250000   0.250000   x 
            x  H:mu         1         0.046154   0.478636   0.405497   x 
            xxxxxxxxxxxxxxxxxxxxxxxxxxxxxxxxxxxxxxxxxxxxxxxxxxxxxxxxxxxx
 
 
                         No user defined ionic velocities
 
                           -------------------------------
                                   Details of Species
                           -------------------------------
 
                               Mass of species in AMU
                                    Si   28.0855000
                                    H:mu    0.1134289
 
                          Electric Quadrupole Moment (Barn)
                                    Si    1.0000000 No Isotope Defined
                                    H:mu    0.0028600 Isotope  2
 
                          Files used for pseudopotentials:
                                    Si 3|1.8|5|6|7|30:31:32
                                    H:mu 1|0.6|13|15|17|10(qc=8)
 
                           -------------------------------
                              k-Points For BZ Sampling
                           -------------------------------
                       MP grid size for SCF calculation is  1  1  1
                            with an offset of   0.000  0.000  0.000
                       Number of kpoints used =             1
 
                           -------------------------------
                               Symmetry and Constraints
                           -------------------------------
 
                      Maximum deviation from symmetry =  0.00000         ANG
 
                      Number of symmetry operations   =           1
                      Number of ionic constraints     =           3
                      Point group of crystal =     1: C1, 1, 1
                      Space group of crystal =     1: P1, P 1
 
             Set iprint > 1 for details on symmetry rotations/translations
 
                         Centre of mass is constrained
             Set iprint > 1 for details of linear ionic constraints
 
                         Number of cell constraints= 6
                         Cell constraints are:  0 0 0 0 0 0
 
                         External pressure/stress (GPa)
                          0.00000   0.00000   0.00000
                                    0.00000   0.00000
                                              0.00000
  
+---------------- MEMORY AND SCRATCH DISK ESTIMATES PER PROCESS --------------+
|                                                     Memory          Disk    |
| Baseline code, static data and system overhead      464.0 MB         0.0 MB |
| BLAS internal memory storage                          0.0 MB         0.0 MB |
| Model and support data                               25.0 MB         0.0 MB |
| Electronic energy minimisation requirements           0.2 MB         0.0 MB |
| Force calculation requirements                        0.1 MB         0.0 MB |
|                                               ----------------------------- |
| Approx. total storage required per process          489.2 MB         0.0 MB |
|                                                                             |
| Requirements will fluctuate during execution and may exceed these estimates |
+-----------------------------------------------------------------------------+
Calculating total energy with cut-off of  150.000 eV.
------------------------------------------------------------------------ <-- SCF
SCF loop      Energy                           Energy gain       Timer   <-- SCF
                                               per atom          (sec)   <-- SCF
------------------------------------------------------------------------ <-- SCF
Initial  -6.78653982E+001                                          5.71  <-- SCF
      1  -3.15717352E+002                    8.26173180E+001       5.71  <-- SCF
      2  -3.40609423E+002                    8.29735692E+000       5.72  <-- SCF
      3  -3.41015990E+002                    1.35522326E-001       5.73  <-- SCF
      4  -3.37999615E+002                   -1.00545825E+000       5.73  <-- SCF
      5  -3.37871758E+002                   -4.26189119E-002       5.74  <-- SCF
      6  -3.37850189E+002                   -7.18988019E-003       5.75  <-- SCF
      7  -3.37849860E+002                   -1.09571794E-004       5.76  <-- SCF
      8  -3.37850212E+002                    1.17315587E-004       5.76  <-- SCF
      9  -3.37850202E+002                   -3.35029310E-006       5.77  <-- SCF
     10  -3.37850209E+002                    2.22467970E-006       5.78  <-- SCF
     11  -3.37850209E+002                    3.64187579E-008       5.79  <-- SCF
     12  -3.37850209E+002                    1.99208115E-008       5.79  <-- SCF
     13  -3.37850209E+002                    4.95062458E-009       5.80  <-- SCF
     14  -3.37850209E+002                    1.23180735E-009       5.81  <-- SCF
------------------------------------------------------------------------ <-- SCF
 
Final energy =  -337.8502088310     eV
(energy not corrected for finite basis set)
 

Writing analysis data to ./castep-pymuonsuite-test-data/muon-airss-out-castep/castep/Si2_23/Si2_23.castep_bin

Writing model to ./castep-pymuonsuite-test-data/muon-airss-out-castep/castep/Si2_23/Si2_23.check
 
+---------------- MEMORY AND SCRATCH DISK ESTIMATES PER PROCESS --------------+
|                                                     Memory          Disk    |
| Model and support data                               36.0 MB         0.0 MB |
| Electronic energy minimisation requirements           0.2 MB         0.0 MB |
| Geometry minimisation requirements                    0.2 MB         0.0 MB |
|                                               ----------------------------- |
| Approx. total storage required per process           36.3 MB         0.0 MB |
|                                                                             |
| Requirements will fluctuate during execution and may exceed these estimates |
+-----------------------------------------------------------------------------+
 
 
 ************************************** Forces **************************************
 *                                                                                  *
 *                           Cartesian components (eV/A)                            *
 * -------------------------------------------------------------------------------- *
 *                         x                    y                    z              *
 *                                                                                  *
 * Si              1      1.55916             -1.62648              1.39531         *
 * Si              2     -2.69410              3.90508            -23.25203         *
 * H:mu            1      1.13494             -2.27860             21.85672         *
 *                                                                                  *
 ************************************************************************************
 LBFGS: finished iteration     0 with enthalpy= -3.37850209E+002 eV
  
 +-----------+-----------------+-----------------+------------+-----+ <-- LBFGS
 | Parameter |      value      |    tolerance    |    units   | OK? | <-- LBFGS
 +-----------+-----------------+-----------------+------------+-----+ <-- LBFGS
 |  dE/ion   |   0.000000E+000 |   2.000000E-005 |         eV | No  | <-- LBFGS
 |  |F|max   |   2.373109E+001 |   5.000000E-002 |       eV/A | No  | <-- LBFGS
 |  |dR|max  |   0.000000E+000 |   1.000000E-003 |          A | No  | <-- LBFGS
 +-----------+-----------------+-----------------+------------+-----+ <-- LBFGS
  

================================================================================
 Starting LBFGS iteration          1 ...
================================================================================
  
 +------------+-------------+-------------+-----------------+ <-- min LBFGS
 |    Step    |   lambda    |   F.delta'  |    enthalpy     | <-- min LBFGS
 +------------+-------------+-------------+-----------------+ <-- min LBFGS
 |  previous  |    0.000000 |    3.635744 |     -337.850209 | <-- min LBFGS
 +------------+-------------+-------------+-----------------+ <-- min LBFGS
  

--------------------------------------------------------------------------------
 LBFGS: starting iteration         1 with trial guess (lambda=  1.000000)
--------------------------------------------------------------------------------
 
                           -------------------------------
                                     Cell Contents
                           -------------------------------
 
            xxxxxxxxxxxxxxxxxxxxxxxxxxxxxxxxxxxxxxxxxxxxxxxxxxxxxxxxxxxxxxxxx
            x  Element         Atom        Fractional coordinates of atoms  x
            x                 Number           u          v          w      x
            x---------------------------------------------------------------x
            x  Si                1        -0.001414   0.004428  -0.001730   x
            x  Si                2         0.273645   0.221147   0.233904   x
            x  H:mu              1         0.023923   0.503061   0.423323   x
            xxxxxxxxxxxxxxxxxxxxxxxxxxxxxxxxxxxxxxxxxxxxxxxxxxxxxxxxxxxxxxxxx
 
 
------------------------------------------------------------------------ <-- SCF
SCF loop      Energy                           Energy gain       Timer   <-- SCF
                                               per atom          (sec)   <-- SCF
------------------------------------------------------------------------ <-- SCF
Initial  -3.38304105E+002                                          5.90  <-- SCF
      1  -3.40833878E+002                    8.43257666E-001       5.90  <-- SCF
      2  -3.40935129E+002                    3.37503932E-002       5.91  <-- SCF
      3  -3.40782104E+002                   -5.10083655E-002       5.92  <-- SCF
      4  -3.40725388E+002                   -1.89055469E-002       5.93  <-- SCF
      5  -3.40725165E+002                   -7.42388777E-005       5.94  <-- SCF
      6  -3.40724813E+002                   -1.17219150E-004       5.94  <-- SCF
      7  -3.40724813E+002                   -1.03793485E-007       5.95  <-- SCF
      8  -3.40724816E+002                    1.06975889E-006       5.96  <-- SCF
      9  -3.40724816E+002                   -6.85275193E-008       5.97  <-- SCF
     10  -3.40724816E+002                   -2.85825194E-008       5.97  <-- SCF
     11  -3.40724816E+002                    1.62564863E-008       5.98  <-- SCF
     12  -3.40724816E+002                   -7.85183533E-009       5.99  <-- SCF
     13  -3.40724816E+002                   -2.02822605E-009       5.99  <-- SCF
------------------------------------------------------------------------ <-- SCF
 
Final energy =  -340.7248157629     eV
(energy not corrected for finite basis set)
 
 
 ************************************** Forces **************************************
 *                                                                                  *
 *                           Cartesian components (eV/A)                            *
 * -------------------------------------------------------------------------------- *
 *                         x                    y                    z              *
 *                                                                                  *
 * Si              1      1.57888             -1.62310             -0.46966         *
 * Si              2     -2.27023              2.36076             -3.47804         *
 * H:mu            1      0.69135             -0.73766              3.94770         *
 *                                                                                  *
 ************************************************************************************
  
 +------------+-------------+-------------+-----------------+ <-- min LBFGS
 |    Step    |   lambda    |   F.delta'  |    enthalpy     | <-- min LBFGS
 +------------+-------------+-------------+-----------------+ <-- min LBFGS
 |  previous  |    0.000000 |    3.635744 |     -337.850209 | <-- min LBFGS
 | trial step |    1.000000 |    0.653099 |     -340.724816 | <-- min LBFGS
 +------------+-------------+-------------+-----------------+ <-- min LBFGS
  
 LBFGS: finished iteration     1 with enthalpy= -3.40724816E+002 eV
  
 +-----------+-----------------+-----------------+------------+-----+ <-- LBFGS
 | Parameter |      value      |    tolerance    |    units   | OK? | <-- LBFGS
 +-----------+-----------------+-----------------+------------+-----+ <-- LBFGS
 |  dE/ion   |   9.582023E-001 |   2.000000E-005 |         eV | No  | <-- LBFGS
 |  |F|max   |   4.777430E+000 |   5.000000E-002 |       eV/A | No  | <-- LBFGS
 |  |dR|max  |   1.236552E-001 |   1.000000E-003 |          A | No  | <-- LBFGS
 +-----------+-----------------+-----------------+------------+-----+ <-- LBFGS
  

================================================================================
 Starting LBFGS iteration          2 ...
================================================================================
  
 +------------+-------------+-------------+-----------------+ <-- min LBFGS
 |    Step    |   lambda    |   F.delta'  |    enthalpy     | <-- min LBFGS
 +------------+-------------+-------------+-----------------+ <-- min LBFGS
 |  previous  |    0.000000 |    0.721162 |     -340.724816 | <-- min LBFGS
 +------------+-------------+-------------+-----------------+ <-- min LBFGS
  

--------------------------------------------------------------------------------
 LBFGS: starting iteration         2 with trial guess (lambda=  1.000000)
--------------------------------------------------------------------------------
 
                           -------------------------------
                                     Cell Contents
                           -------------------------------
 
            xxxxxxxxxxxxxxxxxxxxxxxxxxxxxxxxxxxxxxxxxxxxxxxxxxxxxxxxxxxxxxxxx
            x  Element         Atom        Fractional coordinates of atoms  x
            x                 Number           u          v          w      x
            x---------------------------------------------------------------x
            x  Si                1        -0.000934   0.007714  -0.006083   x
            x  Si                2         0.278208   0.211155   0.235018   x
            x  H:mu              1         0.018880   0.509767   0.426561   x
            xxxxxxxxxxxxxxxxxxxxxxxxxxxxxxxxxxxxxxxxxxxxxxxxxxxxxxxxxxxxxxxxx
 
 
------------------------------------------------------------------------ <-- SCF
SCF loop      Energy                           Energy gain       Timer   <-- SCF
                                               per atom          (sec)   <-- SCF
------------------------------------------------------------------------ <-- SCF
Initial  -3.40564543E+002                                          6.03  <-- SCF
      1  -3.40994639E+002                    1.43365446E-001       6.04  <-- SCF
      2  -3.40995924E+002                    4.28225488E-004       6.04  <-- SCF
      3  -3.40976110E+002                   -6.60466859E-003       6.05  <-- SCF
      4  -3.40968651E+002                   -2.48634041E-003       6.06  <-- SCF
      5  -3.40968748E+002                    3.21901975E-005       6.07  <-- SCF
      6  -3.40968721E+002                   -8.85538168E-006       6.08  <-- SCF
      7  -3.40968719E+002                   -5.48145136E-007       6.08  <-- SCF
      8  -3.40968720E+002                    2.31006214E-008       6.09  <-- SCF
      9  -3.40968720E+002                    6.77341781E-009       6.10  <-- SCF
     10  -3.40968720E+002                    1.74007229E-009       6.10  <-- SCF
------------------------------------------------------------------------ <-- SCF
 
Final energy =  -340.9687195685     eV
(energy not corrected for finite basis set)
 
 
 ************************************** Forces **************************************
 *                                                                                  *
 *                           Cartesian components (eV/A)                            *
 * -------------------------------------------------------------------------------- *
 *                         x                    y                    z              *
 *                                                                                  *
 * Si              1      1.36588             -1.37929             -0.57278         *
 * Si              2     -2.37901              2.32226             -1.33277         *
 * H:mu            1      1.01313             -0.94297              1.90555         *
 *                                                                                  *
 ************************************************************************************
  
 +------------+-------------+-------------+-----------------+ <-- min LBFGS
 |    Step    |   lambda    |   F.delta'  |    enthalpy     | <-- min LBFGS
 +------------+-------------+-------------+-----------------+ <-- min LBFGS
 |  previous  |    0.000000 |    0.721162 |     -340.724816 | <-- min LBFGS
 | trial step |    1.000000 |    0.463338 |     -340.968720 | <-- min LBFGS
 +------------+-------------+-------------+-----------------+ <-- min LBFGS
  

--------------------------------------------------------------------------------
 LBFGS: improving iteration         2 with line minimization (lambda=  2.797111)
--------------------------------------------------------------------------------
 
                           -------------------------------
                                     Cell Contents
                           -------------------------------
 
            xxxxxxxxxxxxxxxxxxxxxxxxxxxxxxxxxxxxxxxxxxxxxxxxxxxxxxxxxxxxxxxxx
            x  Element         Atom        Fractional coordinates of atoms  x
            x                 Number           u          v          w      x
            x---------------------------------------------------------------x
            x  Si                1        -0.000072   0.013620  -0.013904   x
            x  Si                2         0.286408   0.193200   0.237021   x
            x  H:mu              1         0.009818   0.521816   0.432379   x
            xxxxxxxxxxxxxxxxxxxxxxxxxxxxxxxxxxxxxxxxxxxxxxxxxxxxxxxxxxxxxxxxx
 
 
------------------------------------------------------------------------ <-- SCF
SCF loop      Energy                           Energy gain       Timer   <-- SCF
                                               per atom          (sec)   <-- SCF
------------------------------------------------------------------------ <-- SCF
Initial  -3.40547006E+002                                          6.13  <-- SCF
      1  -3.41239171E+002                    2.30721621E-001       6.13  <-- SCF
      2  -3.41243362E+002                    1.39686021E-003       6.14  <-- SCF
      3  -3.41186398E+002                   -1.89878911E-002       6.15  <-- SCF
      4  -3.41177522E+002                   -2.95855229E-003       6.16  <-- SCF
      5  -3.41177847E+002                    1.08107791E-004       6.17  <-- SCF
      6  -3.41177745E+002                   -3.37650666E-005       6.17  <-- SCF
      7  -3.41177746E+002                    2.58419925E-007       6.18  <-- SCF
      8  -3.41177744E+002                   -5.63872814E-007       6.19  <-- SCF
      9  -3.41177744E+002                    2.11092765E-008       6.20  <-- SCF
     10  -3.41177744E+002                    2.32053679E-009       6.21  <-- SCF
     11  -3.41177744E+002                    7.00517825E-010       6.21  <-- SCF
------------------------------------------------------------------------ <-- SCF
 
Final energy =  -341.1777444319     eV
(energy not corrected for finite basis set)
 
 
 ************************************** Forces **************************************
 *                                                                                  *
 *                           Cartesian components (eV/A)                            *
 * -------------------------------------------------------------------------------- *
 *                         x                    y                    z              *
 *                                                                                  *
 * Si              1      0.88492             -0.81811             -0.69674         *
 * Si              2     -2.35375              2.08522              1.32984         *
 * H:mu            1      1.46882             -1.26710             -0.63311         *
 *                                                                                  *
 ************************************************************************************
  
 +------------+-------------+-------------+-----------------+ <-- min LBFGS
 |    Step    |   lambda    |   F.delta'  |    enthalpy     | <-- min LBFGS
 +------------+-------------+-------------+-----------------+ <-- min LBFGS
 |  previous  |    0.000000 |    0.721162 |     -340.724816 | <-- min LBFGS
 | trial step |    1.000000 |    0.463338 |     -340.968720 | <-- min LBFGS
 |  line step |    2.797111 |    0.120047 |     -341.177744 | <-- min LBFGS
 +------------+-------------+-------------+-----------------+ <-- min LBFGS
  
 LBFGS: finished iteration     2 with enthalpy= -3.41177744E+002 eV
  
 +-----------+-----------------+-----------------+------------+-----+ <-- LBFGS
 | Parameter |      value      |    tolerance    |    units   | OK? | <-- LBFGS
 +-----------+-----------------+-----------------+------------+-----+ <-- LBFGS
 |  dE/ion   |   1.509762E-001 |   2.000000E-005 |         eV | No  | <-- LBFGS
 |  |F|max   |   3.414196E+000 |   5.000000E-002 |       eV/A | No  | <-- LBFGS
 |  |dR|max  |   8.936870E-002 |   1.000000E-003 |          A | No  | <-- LBFGS
 +-----------+-----------------+-----------------+------------+-----+ <-- LBFGS
  

================================================================================
 Starting LBFGS iteration          3 ...
================================================================================
  
 +------------+-------------+-------------+-----------------+ <-- min LBFGS
 |    Step    |   lambda    |   F.delta'  |    enthalpy     | <-- min LBFGS
 +------------+-------------+-------------+-----------------+ <-- min LBFGS
 |  previous  |    0.000000 |    0.305300 |     -341.177744 | <-- min LBFGS
 +------------+-------------+-------------+-----------------+ <-- min LBFGS
  

--------------------------------------------------------------------------------
 LBFGS: starting iteration         3 with trial guess (lambda=  1.000000)
--------------------------------------------------------------------------------
 
                           -------------------------------
                                     Cell Contents
                           -------------------------------
 
            xxxxxxxxxxxxxxxxxxxxxxxxxxxxxxxxxxxxxxxxxxxxxxxxxxxxxxxxxxxxxxxxx
            x  Element         Atom        Fractional coordinates of atoms  x
            x                 Number           u          v          w      x
            x---------------------------------------------------------------x
            x  Si                1         0.001136   0.017238  -0.019861   x
            x  Si                2         0.288260   0.181877   0.244238   x
            x  H:mu              1         0.006758   0.529521   0.431120   x
            xxxxxxxxxxxxxxxxxxxxxxxxxxxxxxxxxxxxxxxxxxxxxxxxxxxxxxxxxxxxxxxxx
 
 
------------------------------------------------------------------------ <-- SCF
SCF loop      Energy                           Energy gain       Timer   <-- SCF
                                               per atom          (sec)   <-- SCF
------------------------------------------------------------------------ <-- SCF
Initial  -3.41113849E+002                                          6.25  <-- SCF
      1  -3.41318268E+002                    6.81398509E-002       6.25  <-- SCF
      2  -3.41322200E+002                    1.31060358E-003       6.26  <-- SCF
      3  -3.41305374E+002                   -5.60884038E-003       6.27  <-- SCF
      4  -3.41304475E+002                   -2.99589792E-004       6.28  <-- SCF
      5  -3.41304502E+002                    9.13441399E-006       6.28  <-- SCF
      6  -3.41304498E+002                   -1.30333401E-006       6.29  <-- SCF
      7  -3.41304497E+002                   -2.98770892E-007       6.30  <-- SCF
      8  -3.41304497E+002                   -1.27777596E-008       6.31  <-- SCF
      9  -3.41304497E+002                    8.01136398E-009       6.31  <-- SCF
     10  -3.41304497E+002                   -3.29659238E-009       6.32  <-- SCF
------------------------------------------------------------------------ <-- SCF
 
Final energy =  -341.3044974478     eV
(energy not corrected for finite basis set)
 
 
 ************************************** Forces **************************************
 *                                                                                  *
 *                           Cartesian components (eV/A)                            *
 * -------------------------------------------------------------------------------- *
 *                         x                    y                    z              *
 *                                                                                  *
 * Si              1      0.44828             -0.38456             -0.31094         *
 * Si              2     -2.09026              1.80097              1.61002         *
 * H:mu            1      1.64198             -1.41642             -1.29908         *
 *                                                                                  *
 ************************************************************************************
  
 +------------+-------------+-------------+-----------------+ <-- min LBFGS
 |    Step    |   lambda    |   F.delta'  |    enthalpy     | <-- min LBFGS
 +------------+-------------+-------------+-----------------+ <-- min LBFGS
 |  previous  |    0.000000 |    0.305300 |     -341.177744 | <-- min LBFGS
 | trial step |    1.000000 |    0.225001 |     -341.304497 | <-- min LBFGS
 +------------+-------------+-------------+-----------------+ <-- min LBFGS
  

--------------------------------------------------------------------------------
 LBFGS: improving iteration         3 with line minimization (lambda=  3.802031)
--------------------------------------------------------------------------------
 
                           -------------------------------
                                     Cell Contents
                           -------------------------------
 
            xxxxxxxxxxxxxxxxxxxxxxxxxxxxxxxxxxxxxxxxxxxxxxxxxxxxxxxxxxxxxxxxx
            x  Element         Atom        Fractional coordinates of atoms  x
            x                 Number           u          v          w      x
            x---------------------------------------------------------------x
            x  Si                1         0.004520   0.027375  -0.036553   x
            x  Si                2         0.293448   0.150151   0.264459   x
            x  H:mu              1        -0.001814   0.551110   0.427590   x
            xxxxxxxxxxxxxxxxxxxxxxxxxxxxxxxxxxxxxxxxxxxxxxxxxxxxxxxxxxxxxxxxx
 
 
------------------------------------------------------------------------ <-- SCF
SCF loop      Energy                           Energy gain       Timer   <-- SCF
                                               per atom          (sec)   <-- SCF
------------------------------------------------------------------------ <-- SCF
Initial  -3.41019772E+002                                          6.34  <-- SCF
      1  -3.41475371E+002                    1.51866355E-001       6.35  <-- SCF
      2  -3.41488294E+002                    4.30770903E-003       6.36  <-- SCF
      3  -3.41414890E+002                   -2.44679156E-002       6.36  <-- SCF
      4  -3.41414187E+002                   -2.34351154E-004       6.37  <-- SCF
      5  -3.41414228E+002                    1.36150937E-005       6.38  <-- SCF
      6  -3.41414237E+002                    3.03422226E-006       6.38  <-- SCF
      7  -3.41414238E+002                    1.15935885E-007       6.39  <-- SCF
      8  -3.41414238E+002                   -5.90599187E-010       6.40  <-- SCF
      9  -3.41414238E+002                    2.92881126E-009       6.40  <-- SCF
------------------------------------------------------------------------ <-- SCF
 
Final energy =  -341.4142376422     eV
(energy not corrected for finite basis set)
 
 
 ************************************** Forces **************************************
 *                                                                                  *
 *                           Cartesian components (eV/A)                            *
 * -------------------------------------------------------------------------------- *
 *                         x                    y                    z              *
 *                                                                                  *
 * Si              1     -0.76906              0.79603              0.96109         *
 * Si              2     -0.60905              0.31199              1.50185         *
 * H:mu            1      1.37811             -1.10802             -2.46294         *
 *                                                                                  *
 ************************************************************************************
  
 +------------+-------------+-------------+-----------------+ <-- min LBFGS
 |    Step    |   lambda    |   F.delta'  |    enthalpy     | <-- min LBFGS
 +------------+-------------+-------------+-----------------+ <-- min LBFGS
 |  previous  |    0.000000 |    0.305300 |     -341.177744 | <-- min LBFGS
 | trial step |    1.000000 |    0.225001 |     -341.304497 | <-- min LBFGS
 |  line step |    3.802031 |   -0.068144 |     -341.414238 | <-- min LBFGS
 +------------+-------------+-------------+-----------------+ <-- min LBFGS
  
 LBFGS: finished iteration     3 with enthalpy= -3.41414238E+002 eV
  
 +-----------+-----------------+-----------------+------------+-----+ <-- LBFGS
 | Parameter |      value      |    tolerance    |    units   | OK? | <-- LBFGS
 +-----------+-----------------+-----------------+------------+-----+ <-- LBFGS
 |  dE/ion   |   7.883107E-002 |   2.000000E-005 |         eV | No  | <-- LBFGS
 |  |F|max   |   3.031994E+000 |   5.000000E-002 |       eV/A | No  | <-- LBFGS
 |  |dR|max  |   1.408107E-001 |   1.000000E-003 |          A | No  | <-- LBFGS
 +-----------+-----------------+-----------------+------------+-----+ <-- LBFGS
  

================================================================================
 Starting LBFGS iteration          4 ...
================================================================================
  
 +------------+-------------+-------------+-----------------+ <-- min LBFGS
 |    Step    |   lambda    |   F.delta'  |    enthalpy     | <-- min LBFGS
 +------------+-------------+-------------+-----------------+ <-- min LBFGS
 |  previous  |    0.000000 |    0.305736 |     -341.414238 | <-- min LBFGS
 +------------+-------------+-------------+-----------------+ <-- min LBFGS
  

--------------------------------------------------------------------------------
 LBFGS: starting iteration         4 with trial guess (lambda=  1.000000)
--------------------------------------------------------------------------------
 
                           -------------------------------
                                     Cell Contents
                           -------------------------------
 
            xxxxxxxxxxxxxxxxxxxxxxxxxxxxxxxxxxxxxxxxxxxxxxxxxxxxxxxxxxxxxxxxx
            x  Element         Atom        Fractional coordinates of atoms  x
            x                 Number           u          v          w      x
            x---------------------------------------------------------------x
            x  Si                1         0.003335   0.024876  -0.031619   x
            x  Si                2         0.289933   0.156815   0.264354   x
            x  H:mu              1         0.002886   0.546945   0.422762   x
            xxxxxxxxxxxxxxxxxxxxxxxxxxxxxxxxxxxxxxxxxxxxxxxxxxxxxxxxxxxxxxxxx
 
 
------------------------------------------------------------------------ <-- SCF
SCF loop      Energy                           Energy gain       Timer   <-- SCF
                                               per atom          (sec)   <-- SCF
------------------------------------------------------------------------ <-- SCF
Initial  -3.41659734E+002                                          6.44  <-- SCF
      1  -3.41509868E+002                   -4.99555509E-002       6.44  <-- SCF
      2  -3.41512113E+002                    7.48544233E-004       6.45  <-- SCF
      3  -3.41506644E+002                   -1.82323377E-003       6.46  <-- SCF
      4  -3.41506529E+002                   -3.82132422E-005       6.46  <-- SCF
      5  -3.41506524E+002                   -1.68657968E-006       6.47  <-- SCF
      6  -3.41506525E+002                    2.70175628E-007       6.48  <-- SCF
      7  -3.41506525E+002                   -4.91773921E-008       6.48  <-- SCF
      8  -3.41506525E+002                    3.46532119E-009       6.49  <-- SCF
      9  -3.41506525E+002                    1.13690545E-009       6.50  <-- SCF
------------------------------------------------------------------------ <-- SCF
 
Final energy =  -341.5065246799     eV
(energy not corrected for finite basis set)
 
 
 ************************************** Forces **************************************
 *                                                                                  *
 *                           Cartesian components (eV/A)                            *
 * -------------------------------------------------------------------------------- *
 *                         x                    y                    z              *
 *                                                                                  *
 * Si              1     -0.65122              0.63704              0.85785         *
 * Si              2     -0.79563              0.57066              1.22356         *
 * H:mu            1      1.44685             -1.20770             -2.08141         *
 *                                                                                  *
 ************************************************************************************
  
 +------------+-------------+-------------+-----------------+ <-- min LBFGS
 |    Step    |   lambda    |   F.delta'  |    enthalpy     | <-- min LBFGS
 +------------+-------------+-------------+-----------------+ <-- min LBFGS
 |  previous  |    0.000000 |    0.305736 |     -341.414238 | <-- min LBFGS
 | trial step |    1.000000 |    0.241258 |     -341.506525 | <-- min LBFGS
 +------------+-------------+-------------+-----------------+ <-- min LBFGS
  

--------------------------------------------------------------------------------
 LBFGS: improving iteration         4 with line minimization (lambda=  4.741701)
--------------------------------------------------------------------------------
 
                           -------------------------------
                                     Cell Contents
                           -------------------------------
 
            xxxxxxxxxxxxxxxxxxxxxxxxxxxxxxxxxxxxxxxxxxxxxxxxxxxxxxxxxxxxxxxxx
            x  Element         Atom        Fractional coordinates of atoms  x
            x                 Number           u          v          w      x
            x---------------------------------------------------------------x
            x  Si                1        -0.001097   0.015526  -0.013159   x
            x  Si                2         0.276780   0.181747   0.263962   x
            x  H:mu              1         0.020471   0.531363   0.404694   x
            xxxxxxxxxxxxxxxxxxxxxxxxxxxxxxxxxxxxxxxxxxxxxxxxxxxxxxxxxxxxxxxxx
 
 
------------------------------------------------------------------------ <-- SCF
SCF loop      Energy                           Energy gain       Timer   <-- SCF
                                               per atom          (sec)   <-- SCF
------------------------------------------------------------------------ <-- SCF
Initial  -3.42240801E+002                                          6.52  <-- SCF
      1  -3.41595274E+002                   -2.15175763E-001       6.52  <-- SCF
      2  -3.41620764E+002                    8.49662774E-003       6.53  <-- SCF
      3  -3.41555667E+002                   -2.16988578E-002       6.54  <-- SCF
      4  -3.41551976E+002                   -1.23050856E-003       6.55  <-- SCF
      5  -3.41551905E+002                   -2.36583958E-005       6.56  <-- SCF
      6  -3.41551916E+002                    3.60233861E-006       6.56  <-- SCF
      7  -3.41551916E+002                    4.53644948E-008       6.57  <-- SCF
      8  -3.41551916E+002                    6.65154379E-009       6.58  <-- SCF
      9  -3.41551916E+002                    3.46155090E-009       6.58  <-- SCF
     10  -3.41551916E+002                    6.30283972E-010       6.59  <-- SCF
------------------------------------------------------------------------ <-- SCF
 
Final energy =  -341.5519158828     eV
(energy not corrected for finite basis set)
 
 
 ************************************** Forces **************************************
 *                                                                                  *
 *                           Cartesian components (eV/A)                            *
 * -------------------------------------------------------------------------------- *
 *                         x                    y                    z              *
 *                                                                                  *
 * Si              1      0.36842             -0.51943              0.63721         *
 * Si              2     -1.96967              2.02298             -1.33998         *
 * H:mu            1      1.60125             -1.50355              0.70277         *
 *                                                                                  *
 ************************************************************************************
  
 +------------+-------------+-------------+-----------------+ <-- min LBFGS
 |    Step    |   lambda    |   F.delta'  |    enthalpy     | <-- min LBFGS
 +------------+-------------+-------------+-----------------+ <-- min LBFGS
 |  previous  |    0.000000 |    0.305736 |     -341.414238 | <-- min LBFGS
 | trial step |    1.000000 |    0.241258 |     -341.506525 | <-- min LBFGS
 |  line step |    4.741701 |   -0.236075 |     -341.551916 | <-- min LBFGS
 +------------+-------------+-------------+-----------------+ <-- min LBFGS
  
 LBFGS: finished iteration     4 with enthalpy= -3.41551916E+002 eV
  
 +-----------+-----------------+-----------------+------------+-----+ <-- LBFGS
 | Parameter |      value      |    tolerance    |    units   | OK? | <-- LBFGS
 +-----------+-----------------+-----------------+------------+-----+ <-- LBFGS
 |  dE/ion   |   4.589275E-002 |   2.000000E-005 |         eV | No  | <-- LBFGS
 |  |F|max   |   3.125314E+000 |   5.000000E-002 |       eV/A | No  | <-- LBFGS
 |  |dR|max  |   1.151588E-001 |   1.000000E-003 |          A | No  | <-- LBFGS
 +-----------+-----------------+-----------------+------------+-----+ <-- LBFGS
  

================================================================================
 Starting LBFGS iteration          5 ...
================================================================================

Writing analysis data to ./castep-pymuonsuite-test-data/muon-airss-out-castep/castep/Si2_23/Si2_23.castep_bin

Writing model to ./castep-pymuonsuite-test-data/muon-airss-out-castep/castep/Si2_23/Si2_23.check
  
 +------------+-------------+-------------+-----------------+ <-- min LBFGS
 |    Step    |   lambda    |   F.delta'  |    enthalpy     | <-- min LBFGS
 +------------+-------------+-------------+-----------------+ <-- min LBFGS
 |  previous  |    0.000000 |    0.381518 |     -341.551916 | <-- min LBFGS
 +------------+-------------+-------------+-----------------+ <-- min LBFGS
  

--------------------------------------------------------------------------------
 LBFGS: starting iteration         5 with trial guess (lambda=  1.000000)
--------------------------------------------------------------------------------
 
                           -------------------------------
                                     Cell Contents
                           -------------------------------
 
            xxxxxxxxxxxxxxxxxxxxxxxxxxxxxxxxxxxxxxxxxxxxxxxxxxxxxxxxxxxxxxxxx
            x  Element         Atom        Fractional coordinates of atoms  x
            x                 Number           u          v          w      x
            x---------------------------------------------------------------x
            x  Si                1        -0.000197   0.022547  -0.021992   x
            x  Si                2         0.280114   0.158343   0.279644   x
            x  H:mu              1         0.016237   0.547746   0.397845   x
            xxxxxxxxxxxxxxxxxxxxxxxxxxxxxxxxxxxxxxxxxxxxxxxxxxxxxxxxxxxxxxxxx
 
 
------------------------------------------------------------------------ <-- SCF
SCF loop      Energy                           Energy gain       Timer   <-- SCF
                                               per atom          (sec)   <-- SCF
------------------------------------------------------------------------ <-- SCF
Initial  -3.41530770E+002                                          6.67  <-- SCF
      1  -3.41795310E+002                    8.81801642E-002       6.68  <-- SCF
      2  -3.41805816E+002                    3.50176862E-003       6.68  <-- SCF
      3  -3.41774779E+002                   -1.03455016E-002       6.69  <-- SCF
      4  -3.41773939E+002                   -2.79970007E-004       6.70  <-- SCF
      5  -3.41774010E+002                    2.34530868E-005       6.70  <-- SCF
      6  -3.41774010E+002                    5.61245658E-008       6.71  <-- SCF
      7  -3.41774010E+002                    2.28745486E-008       6.72  <-- SCF
      8  -3.41774010E+002                    2.54372544E-009       6.72  <-- SCF
      9  -3.41774010E+002                    1.02711571E-009       6.73  <-- SCF
------------------------------------------------------------------------ <-- SCF
 
Final energy =  -341.7740098665     eV
(energy not corrected for finite basis set)
 
 
 ************************************** Forces **************************************
 *                                                                                  *
 *                           Cartesian components (eV/A)                            *
 * -------------------------------------------------------------------------------- *
 *                         x                    y                    z              *
 *                                                                                  *
 * Si              1     -0.85105              0.65138              1.40251         *
 * Si              2     -0.40632              0.46836             -0.54420         *
 * H:mu            1      1.25737             -1.11974             -0.85831         *
 *                                                                                  *
 ************************************************************************************
  
 +------------+-------------+-------------+-----------------+ <-- min LBFGS
 |    Step    |   lambda    |   F.delta'  |    enthalpy     | <-- min LBFGS
 +------------+-------------+-------------+-----------------+ <-- min LBFGS
 |  previous  |    0.000000 |    0.381518 |     -341.551916 | <-- min LBFGS
 | trial step |    1.000000 |    0.073260 |     -341.774010 | <-- min LBFGS
 +------------+-------------+-------------+-----------------+ <-- min LBFGS
  
 LBFGS: finished iteration     5 with enthalpy= -3.41774010E+002 eV
  
 +-----------+-----------------+-----------------+------------+-----+ <-- LBFGS
 | Parameter |      value      |    tolerance    |    units   | OK? | <-- LBFGS
 +-----------+-----------------+-----------------+------------+-----+ <-- LBFGS
 |  dE/ion   |   7.403133E-002 |   2.000000E-005 |         eV | No  | <-- LBFGS
 |  |F|max   |   1.889836E+000 |   5.000000E-002 |       eV/A | No  | <-- LBFGS
 |  |dR|max  |   7.737611E-002 |   1.000000E-003 |          A | No  | <-- LBFGS
 +-----------+-----------------+-----------------+------------+-----+ <-- LBFGS
  

================================================================================
 Starting LBFGS iteration          6 ...
================================================================================
  
 +------------+-------------+-------------+-----------------+ <-- min LBFGS
 |    Step    |   lambda    |   F.delta'  |    enthalpy     | <-- min LBFGS
 +------------+-------------+-------------+-----------------+ <-- min LBFGS
 |  previous  |    0.000000 |    0.203788 |     -341.774010 | <-- min LBFGS
 +------------+-------------+-------------+-----------------+ <-- min LBFGS
  

--------------------------------------------------------------------------------
 LBFGS: starting iteration         6 with trial guess (lambda=  1.000000)
--------------------------------------------------------------------------------
 
                           -------------------------------
                                     Cell Contents
                           -------------------------------
 
            xxxxxxxxxxxxxxxxxxxxxxxxxxxxxxxxxxxxxxxxxxxxxxxxxxxxxxxxxxxxxxxxx
            x  Element         Atom        Fractional coordinates of atoms  x
            x                 Number           u          v          w      x
            x---------------------------------------------------------------x
            x  Si                1        -0.003445   0.024412  -0.017657   x
            x  Si                2         0.276517   0.146620   0.296544   x
            x  H:mu              1         0.023082   0.557604   0.376610   x
            xxxxxxxxxxxxxxxxxxxxxxxxxxxxxxxxxxxxxxxxxxxxxxxxxxxxxxxxxxxxxxxxx
 
 
------------------------------------------------------------------------ <-- SCF
SCF loop      Energy                           Energy gain       Timer   <-- SCF
                                               per atom          (sec)   <-- SCF
------------------------------------------------------------------------ <-- SCF
Initial  -3.42228775E+002                                          6.76  <-- SCF
      1  -3.41911063E+002                   -1.05904151E-001       6.77  <-- SCF
      2  -3.41914794E+002                    1.24369521E-003       6.78  <-- SCF
      3  -3.41902917E+002                   -3.95913272E-003       6.78  <-- SCF
      4  -3.41902715E+002                   -6.70671854E-005       6.79  <-- SCF
      5  -3.41902716E+002                    2.85770798E-007       6.79  <-- SCF
      6  -3.41902718E+002                    7.52436061E-007       6.80  <-- SCF
      7  -3.41902718E+002                   -2.35401670E-008       6.81  <-- SCF
      8  -3.41902718E+002                    4.30300369E-009       6.82  <-- SCF
      9  -3.41902718E+002                    1.24891870E-009       6.82  <-- SCF
------------------------------------------------------------------------ <-- SCF
 
Final energy =  -341.9027184228     eV
(energy not corrected for finite basis set)
 
 
 ************************************** Forces **************************************
 *                                                                                  *
 *                           Cartesian components (eV/A)                            *
 * -------------------------------------------------------------------------------- *
 *                         x                    y                    z              *
 *                                                                                  *
 * Si              1     -1.46107              1.15914              1.96578         *
 * Si              2      0.59787             -0.38452             -1.30881         *
 * H:mu            1      0.86320             -0.77462             -0.65697         *
 *                                                                                  *
 ************************************************************************************
  
 +------------+-------------+-------------+-----------------+ <-- min LBFGS
 |    Step    |   lambda    |   F.delta'  |    enthalpy     | <-- min LBFGS
 +------------+-------------+-------------+-----------------+ <-- min LBFGS
 |  previous  |    0.000000 |    0.203788 |     -341.774010 | <-- min LBFGS
 | trial step |    1.000000 |    0.083395 |     -341.902718 | <-- min LBFGS
 +------------+-------------+-------------+-----------------+ <-- min LBFGS
  

--------------------------------------------------------------------------------
 LBFGS: improving iteration         6 with line minimization (lambda=  1.692688)
--------------------------------------------------------------------------------
 
                           -------------------------------
                                     Cell Contents
                           -------------------------------
 
            xxxxxxxxxxxxxxxxxxxxxxxxxxxxxxxxxxxxxxxxxxxxxxxxxxxxxxxxxxxxxxxxx
            x  Element         Atom        Fractional coordinates of atoms  x
            x                 Number           u          v          w      x
            x---------------------------------------------------------------x
            x  Si                1        -0.005695   0.025705  -0.014654   x
            x  Si                2         0.274025   0.138499   0.308250   x
            x  H:mu              1         0.027823   0.564433   0.361901   x
            xxxxxxxxxxxxxxxxxxxxxxxxxxxxxxxxxxxxxxxxxxxxxxxxxxxxxxxxxxxxxxxxx
 
 
------------------------------------------------------------------------ <-- SCF
SCF loop      Energy                           Energy gain       Timer   <-- SCF
                                               per atom          (sec)   <-- SCF
------------------------------------------------------------------------ <-- SCF
Initial  -3.42178487E+002                                          6.85  <-- SCF
      1  -3.41932220E+002                   -8.20888200E-002       6.85  <-- SCF
      2  -3.41934058E+002                    6.12598903E-004       6.86  <-- SCF
      3  -3.41926456E+002                   -2.53390975E-003       6.87  <-- SCF
      4  -3.41926243E+002                   -7.11558785E-005       6.87  <-- SCF
      5  -3.41926240E+002                   -7.18404916E-007       6.88  <-- SCF
      6  -3.41926242E+002                    3.64265885E-007       6.89  <-- SCF
      7  -3.41926242E+002                   -2.41089339E-008       6.89  <-- SCF
      8  -3.41926242E+002                    5.85053307E-009       6.90  <-- SCF
      9  -3.41926242E+002                    7.17516383E-010       6.91  <-- SCF
------------------------------------------------------------------------ <-- SCF
 
Final energy =  -341.9262415290     eV
(energy not corrected for finite basis set)
 
 
 ************************************** Forces **************************************
 *                                                                                  *
 *                           Cartesian components (eV/A)                            *
 * -------------------------------------------------------------------------------- *
 *                         x                    y                    z              *
 *                                                                                  *
 * Si              1     -1.92581              1.54667              2.41801         *
 * Si              2      1.38039             -1.05903             -1.82401         *
 * H:mu            1      0.54542             -0.48764             -0.59400         *
 *                                                                                  *
 ************************************************************************************
  
 +------------+-------------+-------------+-----------------+ <-- min LBFGS
 |    Step    |   lambda    |   F.delta'  |    enthalpy     | <-- min LBFGS
 +------------+-------------+-------------+-----------------+ <-- min LBFGS
 |  previous  |    0.000000 |    0.203788 |     -341.774010 | <-- min LBFGS
 | trial step |    1.000000 |    0.083395 |     -341.902718 | <-- min LBFGS
 |  line step |    1.692688 |   -0.007457 |     -341.926242 | <-- min LBFGS
 +------------+-------------+-------------+-----------------+ <-- min LBFGS
  
 LBFGS: finished iteration     6 with enthalpy= -3.41926242E+002 eV
  
 +-----------+-----------------+-----------------+------------+-----+ <-- LBFGS
 | Parameter |      value      |    tolerance    |    units   | OK? | <-- LBFGS
 +-----------+-----------------+-----------------+------------+-----+ <-- LBFGS
 |  dE/ion   |   5.074389E-002 |   2.000000E-005 |         eV | No  | <-- LBFGS
 |  |F|max   |   3.456547E+000 |   5.000000E-002 |       eV/A | No  | <-- LBFGS
 |  |dR|max  |   1.131921E-001 |   1.000000E-003 |          A | No  | <-- LBFGS
 +-----------+-----------------+-----------------+------------+-----+ <-- LBFGS
  

================================================================================
 Starting LBFGS iteration          7 ...
================================================================================
  
 +------------+-------------+-------------+-----------------+ <-- min LBFGS
 |    Step    |   lambda    |   F.delta'  |    enthalpy     | <-- min LBFGS
 +------------+-------------+-------------+-----------------+ <-- min LBFGS
 |  previous  |    0.000000 |    0.272676 |     -341.926242 | <-- min LBFGS
 +------------+-------------+-------------+-----------------+ <-- min LBFGS
  

--------------------------------------------------------------------------------
 LBFGS: starting iteration         7 with trial guess (lambda=  1.000000)
--------------------------------------------------------------------------------
 
                           -------------------------------
                                     Cell Contents
                           -------------------------------
 
            xxxxxxxxxxxxxxxxxxxxxxxxxxxxxxxxxxxxxxxxxxxxxxxxxxxxxxxxxxxxxxxxx
            x  Element         Atom        Fractional coordinates of atoms  x
            x                 Number           u          v          w      x
            x---------------------------------------------------------------x
            x  Si                1        -0.010827   0.023722  -0.003326   x
            x  Si                2         0.272536   0.139191   0.310203   x
            x  H:mu              1         0.034445   0.565723   0.348620   x
            xxxxxxxxxxxxxxxxxxxxxxxxxxxxxxxxxxxxxxxxxxxxxxxxxxxxxxxxxxxxxxxxx
 
 
------------------------------------------------------------------------ <-- SCF
SCF loop      Energy                           Energy gain       Timer   <-- SCF
                                               per atom          (sec)   <-- SCF
------------------------------------------------------------------------ <-- SCF
Initial  -3.42276658E+002                                          6.94  <-- SCF
      1  -3.42050459E+002                   -7.53995318E-002       6.94  <-- SCF
      2  -3.42053217E+002                    9.19277114E-004       6.95  <-- SCF
      3  -3.42047183E+002                   -2.01127965E-003       6.96  <-- SCF
      4  -3.42047105E+002                   -2.59574308E-005       6.97  <-- SCF
      5  -3.42047096E+002                   -3.21460943E-006       6.97  <-- SCF
      6  -3.42047096E+002                    2.11658439E-007       6.98  <-- SCF
      7  -3.42047096E+002                   -1.04399343E-008       6.98  <-- SCF
      8  -3.42047096E+002                    4.61289304E-009       6.99  <-- SCF
      9  -3.42047096E+002                    8.08454640E-010       6.99  <-- SCF
------------------------------------------------------------------------ <-- SCF
 
Final energy =  -342.0470964032     eV
(energy not corrected for finite basis set)
 
 
 ************************************** Forces **************************************
 *                                                                                  *
 *                           Cartesian components (eV/A)                            *
 * -------------------------------------------------------------------------------- *
 *                         x                    y                    z              *
 *                                                                                  *
 * Si              1     -1.36346              1.01078              1.66813         *
 * Si              2      0.85659             -0.53477             -1.53446         *
 * H:mu            1      0.50687             -0.47602             -0.13367         *
 *                                                                                  *
 ************************************************************************************
  
 +------------+-------------+-------------+-----------------+ <-- min LBFGS
 |    Step    |   lambda    |   F.delta'  |    enthalpy     | <-- min LBFGS
 +------------+-------------+-------------+-----------------+ <-- min LBFGS
 |  previous  |    0.000000 |    0.272676 |     -341.926242 | <-- min LBFGS
 | trial step |    1.000000 |    0.177985 |     -342.047096 | <-- min LBFGS
 +------------+-------------+-------------+-----------------+ <-- min LBFGS
  

--------------------------------------------------------------------------------
 LBFGS: improving iteration         7 with line minimization (lambda=  2.879645)
--------------------------------------------------------------------------------
 
                           -------------------------------
                                     Cell Contents
                           -------------------------------
 
            xxxxxxxxxxxxxxxxxxxxxxxxxxxxxxxxxxxxxxxxxxxxxxxxxxxxxxxxxxxxxxxxx
            x  Element         Atom        Fractional coordinates of atoms  x
            x                 Number           u          v          w      x
            x---------------------------------------------------------------x
            x  Si                1        -0.020474   0.019995   0.017968   x
            x  Si                2         0.269738   0.140492   0.313873   x
            x  H:mu              1         0.046890   0.568149   0.323655   x
            xxxxxxxxxxxxxxxxxxxxxxxxxxxxxxxxxxxxxxxxxxxxxxxxxxxxxxxxxxxxxxxxx
 
 
------------------------------------------------------------------------ <-- SCF
SCF loop      Energy                           Energy gain       Timer   <-- SCF
                                               per atom          (sec)   <-- SCF
------------------------------------------------------------------------ <-- SCF
Initial  -3.42583710E+002                                          7.02  <-- SCF
      1  -3.42148300E+002                   -1.45136359E-001       7.02  <-- SCF
      2  -3.42155725E+002                    2.47499195E-003       7.03  <-- SCF
      3  -3.42134976E+002                   -6.91649981E-003       7.04  <-- SCF
      4  -3.42134616E+002                   -1.19861684E-004       7.05  <-- SCF
      5  -3.42134558E+002                   -1.92898933E-005       7.05  <-- SCF
      6  -3.42134560E+002                    5.58006764E-007       7.06  <-- SCF
      7  -3.42134560E+002                    8.64405997E-008       7.07  <-- SCF
      8  -3.42134560E+002                    5.36466433E-009       7.07  <-- SCF
      9  -3.42134560E+002                    3.25291173E-009       7.08  <-- SCF
------------------------------------------------------------------------ <-- SCF
 
Final energy =  -342.1345604536     eV
(energy not corrected for finite basis set)
 
 
 ************************************** Forces **************************************
 *                                                                                  *
 *                           Cartesian components (eV/A)                            *
 * -------------------------------------------------------------------------------- *
 *                         x                    y                    z              *
 *                                                                                  *
 * Si              1     -0.11930             -0.16306              0.36651         *
 * Si              2     -0.21767              0.50803             -0.93602         *
 * H:mu            1      0.33697             -0.34497              0.56950         *
 *                                                                                  *
 ************************************************************************************
  
 +------------+-------------+-------------+-----------------+ <-- min LBFGS
 |    Step    |   lambda    |   F.delta'  |    enthalpy     | <-- min LBFGS
 +------------+-------------+-------------+-----------------+ <-- min LBFGS
 |  previous  |    0.000000 |    0.272676 |     -341.926242 | <-- min LBFGS
 | trial step |    1.000000 |    0.177985 |     -342.047096 | <-- min LBFGS
 |  line step |    2.879645 |   -0.003365 |     -342.134560 | <-- min LBFGS
 +------------+-------------+-------------+-----------------+ <-- min LBFGS
  
 LBFGS: finished iteration     7 with enthalpy= -3.42134560E+002 eV
  
 +-----------+-----------------+-----------------+------------+-----+ <-- LBFGS
 | Parameter |      value      |    tolerance    |    units   | OK? | <-- LBFGS
 +-----------+-----------------+-----------------+------------+-----+ <-- LBFGS
 |  dE/ion   |   6.943964E-002 |   2.000000E-005 |         eV | No  | <-- LBFGS
 |  |F|max   |   1.087014E+000 |   5.000000E-002 |       eV/A | No  | <-- LBFGS
 |  |dR|max  |   1.229100E-001 |   1.000000E-003 |          A | No  | <-- LBFGS
 +-----------+-----------------+-----------------+------------+-----+ <-- LBFGS
  

================================================================================
 Starting LBFGS iteration          8 ...
================================================================================
  
 +------------+-------------+-------------+-----------------+ <-- min LBFGS
 |    Step    |   lambda    |   F.delta'  |    enthalpy     | <-- min LBFGS
 +------------+-------------+-------------+-----------------+ <-- min LBFGS
 |  previous  |    0.000000 |    0.095607 |     -342.134560 | <-- min LBFGS
 +------------+-------------+-------------+-----------------+ <-- min LBFGS
  

--------------------------------------------------------------------------------
 LBFGS: starting iteration         8 with trial guess (lambda=  1.000000)
--------------------------------------------------------------------------------
 
                           -------------------------------
                                     Cell Contents
                           -------------------------------
 
            xxxxxxxxxxxxxxxxxxxxxxxxxxxxxxxxxxxxxxxxxxxxxxxxxxxxxxxxxxxxxxxxx
            x  Element         Atom        Fractional coordinates of atoms  x
            x                 Number           u          v          w      x
            x---------------------------------------------------------------x
            x  Si                1        -0.022926   0.021376   0.020564   x
            x  Si                2         0.271420   0.133129   0.318062   x
            x  H:mu              1         0.047661   0.574131   0.316871   x
            xxxxxxxxxxxxxxxxxxxxxxxxxxxxxxxxxxxxxxxxxxxxxxxxxxxxxxxxxxxxxxxxx
 
 
[...]
 
 
 ************************************** Forces **************************************
 *                                                                                  *
 *                           Cartesian components (eV/A)                            *
 * -------------------------------------------------------------------------------- *
 *                         x                    y                    z              *
 *                                                                                  *
 * Si              1     -0.02075              0.03805             -0.05962         *
 * Si              2     -0.02241              0.00274              0.01365         *
 * H:mu            1      0.04315             -0.04078              0.04597         *
 *                                                                                  *
 ************************************************************************************
  
 +------------+-------------+-------------+-----------------+ <-- min LBFGS
 |    Step    |   lambda    |   F.delta'  |    enthalpy     | <-- min LBFGS
 +------------+-------------+-------------+-----------------+ <-- min LBFGS
 |  previous  |    0.000000 |    0.014872 |     -342.157235 | <-- min LBFGS
 | trial step |    1.000000 |    0.010514 |     -342.157411 | <-- min LBFGS
 +------------+-------------+-------------+-----------------+ <-- min LBFGS
  

--------------------------------------------------------------------------------
 LBFGS: improving iteration        11 with line minimization (lambda=  3.412282)
--------------------------------------------------------------------------------
 
                           -------------------------------
                                     Cell Contents
                           -------------------------------
 
            xxxxxxxxxxxxxxxxxxxxxxxxxxxxxxxxxxxxxxxxxxxxxxxxxxxxxxxxxxxxxxxxx
            x  Element         Atom        Fractional coordinates of atoms  x
            x                 Number           u          v          w      x
            x---------------------------------------------------------------x
            x  Si                1        -0.022199   0.020311   0.019289   x
            x  Si                2         0.274263   0.132521   0.314363   x
            x  H:mu              1         0.044090   0.575804   0.321844   x
            xxxxxxxxxxxxxxxxxxxxxxxxxxxxxxxxxxxxxxxxxxxxxxxxxxxxxxxxxxxxxxxxx
 
 
------------------------------------------------------------------------ <-- SCF
SCF loop      Energy                           Energy gain       Timer   <-- SCF
                                               per atom          (sec)   <-- SCF
------------------------------------------------------------------------ <-- SCF
Initial  -3.42160336E+002                                          7.63  <-- SCF
      1  -3.42157704E+002                   -8.77638240E-004       7.63  <-- SCF
      2  -3.42157712E+002                    2.65371066E-006       7.64  <-- SCF
      3  -3.42157584E+002                   -4.24936060E-005       7.65  <-- SCF
      4  -3.42157571E+002                   -4.44765590E-006       7.66  <-- SCF
      5  -3.42157571E+002                    1.14241894E-007       7.66  <-- SCF
      6  -3.42157571E+002                   -1.89341701E-008       7.67  <-- SCF
      7  -3.42157571E+002                    2.28115814E-009       7.67  <-- SCF
      8  -3.42157571E+002                    5.01562191E-010       7.68  <-- SCF
------------------------------------------------------------------------ <-- SCF
 
Final energy =  -342.1575710142     eV
(energy not corrected for finite basis set)
 
 
 ************************************** Forces **************************************
 *                                                                                  *
 *                           Cartesian components (eV/A)                            *
 * -------------------------------------------------------------------------------- *
 *                         x                    y                    z              *
 *                                                                                  *
 * Si              1      0.02540             -0.00341             -0.00983         *
 * Si              2     -0.02564              0.00196             -0.00595         *
 * H:mu            1      0.00024              0.00145              0.01578         *
 *                                                                                  *
 ************************************************************************************
  
 +------------+-------------+-------------+-----------------+ <-- min LBFGS
 |    Step    |   lambda    |   F.delta'  |    enthalpy     | <-- min LBFGS
 +------------+-------------+-------------+-----------------+ <-- min LBFGS
 |  previous  |    0.000000 |    0.014872 |     -342.157235 | <-- min LBFGS
 | trial step |    1.000000 |    0.010514 |     -342.157411 | <-- min LBFGS
 |  line step |    3.412282 |   -0.000188 |     -342.157571 | <-- min LBFGS
 +------------+-------------+-------------+-----------------+ <-- min LBFGS
  
 LBFGS: finished iteration    11 with enthalpy= -3.42157571E+002 eV
  
 +-----------+-----------------+-----------------+------------+-----+ <-- LBFGS
 | Parameter |      value      |    tolerance    |    units   | OK? | <-- LBFGS
 +-----------+-----------------+-----------------+------------+-----+ <-- LBFGS
 |  dE/ion   |   1.119214E-004 |   2.000000E-005 |         eV | No  | <-- LBFGS
 |  |F|max   |   2.744845E-002 |   5.000000E-002 |       eV/A | Yes | <-- LBFGS
 |  |dR|max  |   3.550235E-003 |   1.000000E-003 |          A | No  | <-- LBFGS
 +-----------+-----------------+-----------------+------------+-----+ <-- LBFGS
  

================================================================================
 Starting LBFGS iteration         12 ...
================================================================================
  
 +------------+-------------+-------------+-----------------+ <-- min LBFGS
 |    Step    |   lambda    |   F.delta'  |    enthalpy     | <-- min LBFGS
 +------------+-------------+-------------+-----------------+ <-- min LBFGS
 |  previous  |    0.000000 |    0.002578 |     -342.157571 | <-- min LBFGS
 +------------+-------------+-------------+-----------------+ <-- min LBFGS
  

--------------------------------------------------------------------------------
 LBFGS: starting iteration        12 with trial guess (lambda=  1.000000)
--------------------------------------------------------------------------------
 
                           -------------------------------
                                     Cell Contents
                           -------------------------------
 
            xxxxxxxxxxxxxxxxxxxxxxxxxxxxxxxxxxxxxxxxxxxxxxxxxxxxxxxxxxxxxxxxx
            x  Element         Atom        Fractional coordinates of atoms  x
            x                 Number           u          v          w      x
            x---------------------------------------------------------------x
            x  Si                1        -0.022040   0.020318   0.019006   x
            x  Si                2         0.274361   0.132439   0.314241   x
            x  H:mu              1         0.043833   0.575880   0.322250   x
            xxxxxxxxxxxxxxxxxxxxxxxxxxxxxxxxxxxxxxxxxxxxxxxxxxxxxxxxxxxxxxxxx
 
 
------------------------------------------------------------------------ <-- SCF
SCF loop      Energy                           Energy gain       Timer   <-- SCF
                                               per atom          (sec)   <-- SCF
------------------------------------------------------------------------ <-- SCF
Initial  -3.42146829E+002                                          7.71  <-- SCF
      1  -3.42157601E+002                    3.59075175E-003       7.72  <-- SCF
      2  -3.42157603E+002                    4.93304549E-007       7.73  <-- SCF
      3  -3.42157595E+002                   -2.48586575E-006       7.73  <-- SCF
      4  -3.42157595E+002                   -1.06423541E-007       7.74  <-- SCF
      5  -3.42157595E+002                   -7.99315699E-009       7.75  <-- SCF
      6  -3.42157595E+002                    1.11943963E-009       7.75  <-- SCF
------------------------------------------------------------------------ <-- SCF
 
Final energy =  -342.1575947030     eV
(energy not corrected for finite basis set)
 
 
 ************************************** Forces **************************************
 *                                                                                  *
 *                           Cartesian components (eV/A)                            *
 * -------------------------------------------------------------------------------- *
 *                         x                    y                    z              *
 *                                                                                  *
 * Si              1      0.00824              0.00884              0.00139         *
 * Si              2     -0.00971             -0.00958             -0.00375         *
 * H:mu            1      0.00148              0.00074              0.00236         *
 *                                                                                  *
 ************************************************************************************
  
 +------------+-------------+-------------+-----------------+ <-- min LBFGS
 |    Step    |   lambda    |   F.delta'  |    enthalpy     | <-- min LBFGS
 +------------+-------------+-------------+-----------------+ <-- min LBFGS
 |  previous  |    0.000000 |    0.002578 |     -342.157571 | <-- min LBFGS
 | trial step |    1.000000 |    0.000276 |     -342.157595 | <-- min LBFGS
 +------------+-------------+-------------+-----------------+ <-- min LBFGS
  
 LBFGS: finished iteration    12 with enthalpy= -3.42157595E+002 eV
  
 +-----------+-----------------+-----------------+------------+-----+ <-- LBFGS
 | Parameter |      value      |    tolerance    |    units   | OK? | <-- LBFGS
 +-----------+-----------------+-----------------+------------+-----+ <-- LBFGS
 |  dE/ion   |   7.896263E-006 |   2.000000E-005 |         eV | Yes | <-- LBFGS
 |  |F|max   |   1.414757E-002 |   5.000000E-002 |       eV/A | Yes | <-- LBFGS
 |  |dR|max  |   1.442758E-003 |   1.000000E-003 |          A | No  | <-- LBFGS
 +-----------+-----------------+-----------------+------------+-----+ <-- LBFGS
  

================================================================================
 Starting LBFGS iteration         13 ...
================================================================================
  
 +------------+-------------+-------------+-----------------+ <-- min LBFGS
 |    Step    |   lambda    |   F.delta'  |    enthalpy     | <-- min LBFGS
 +------------+-------------+-------------+-----------------+ <-- min LBFGS
 |  previous  |    0.000000 |    0.001210 |     -342.157595 | <-- min LBFGS
 +------------+-------------+-------------+-----------------+ <-- min LBFGS
  

--------------------------------------------------------------------------------
 LBFGS: starting iteration        13 with trial guess (lambda=  1.000000)
--------------------------------------------------------------------------------
 
                           -------------------------------
                                     Cell Contents
                           -------------------------------
 
            xxxxxxxxxxxxxxxxxxxxxxxxxxxxxxxxxxxxxxxxxxxxxxxxxxxxxxxxxxxxxxxxx
            x  Element         Atom        Fractional coordinates of atoms  x
            x                 Number           u          v          w      x
            x---------------------------------------------------------------x
            x  Si                1        -0.022006   0.020313   0.018981   x
            x  Si                2         0.274359   0.132424   0.314221   x
            x  H:mu              1         0.043801   0.575899   0.322295   x
            xxxxxxxxxxxxxxxxxxxxxxxxxxxxxxxxxxxxxxxxxxxxxxxxxxxxxxxxxxxxxxxxx
 
 
------------------------------------------------------------------------ <-- SCF
SCF loop      Energy                           Energy gain       Timer   <-- SCF
                                               per atom          (sec)   <-- SCF
------------------------------------------------------------------------ <-- SCF
Initial  -3.42156308E+002                                          7.79  <-- SCF
      1  -3.42157597E+002                    4.29525709E-004       7.79  <-- SCF
      2  -3.42157597E+002                    9.96168668E-009       7.80  <-- SCF
      3  -3.42157597E+002                   -5.56367153E-008       7.80  <-- SCF
      4  -3.42157597E+002                   -1.97238055E-009       7.81  <-- SCF
      5  -3.42157597E+002                    2.19321679E-010       7.81  <-- SCF
------------------------------------------------------------------------ <-- SCF
 
Final energy =  -342.1575965397     eV
(energy not corrected for finite basis set)
 
 
 ************************************** Forces **************************************
 *                                                                                  *
 *                           Cartesian components (eV/A)                            *
 * -------------------------------------------------------------------------------- *
 *                         x                    y                    z              *
 *                                                                                  *
 * Si              1      0.00381              0.00599              0.00161         *
 * Si              2     -0.00486             -0.00717             -0.00183         *
 * H:mu            1      0.00105              0.00118              0.00022         *
 *                                                                                  *
 ************************************************************************************
  
 +------------+-------------+-------------+-----------------+ <-- min LBFGS
 |    Step    |   lambda    |   F.delta'  |    enthalpy     | <-- min LBFGS
 +------------+-------------+-------------+-----------------+ <-- min LBFGS
 |  previous  |    0.000000 |    0.001210 |     -342.157595 | <-- min LBFGS
 | trial step |    1.000000 |    0.000572 |     -342.157597 | <-- min LBFGS
 +------------+-------------+-------------+-----------------+ <-- min LBFGS
  
 LBFGS: finished iteration    13 with enthalpy= -3.42157597E+002 eV
  
 +-----------+-----------------+-----------------+------------+-----+ <-- LBFGS
 | Parameter |      value      |    tolerance    |    units   | OK? | <-- LBFGS
 +-----------+-----------------+-----------------+------------+-----+ <-- LBFGS
 |  dE/ion   |   6.122532E-007 |   2.000000E-005 |         eV | Yes | <-- LBFGS
 |  |F|max   |   8.855601E-003 |   5.000000E-002 |       eV/A | Yes | <-- LBFGS
 |  |dR|max  |   1.802987E-004 |   1.000000E-003 |          A | Yes | <-- LBFGS
 +-----------+-----------------+-----------------+------------+-----+ <-- LBFGS
  
 LBFGS: Geometry optimization completed successfully.

================================================================================
 LBFGS: Final Configuration:
================================================================================
 
                           -------------------------------
                                     Cell Contents
                           -------------------------------
 
            xxxxxxxxxxxxxxxxxxxxxxxxxxxxxxxxxxxxxxxxxxxxxxxxxxxxxxxxxxxxxxxxx
            x  Element         Atom        Fractional coordinates of atoms  x
            x                 Number           u          v          w      x
            x---------------------------------------------------------------x
            x  Si                1        -0.022006   0.020313   0.018981   x
            x  Si                2         0.274359   0.132424   0.314221   x
            x  H:mu              1         0.043801   0.575899   0.322295   x
            xxxxxxxxxxxxxxxxxxxxxxxxxxxxxxxxxxxxxxxxxxxxxxxxxxxxxxxxxxxxxxxxx
 
 
 LBFGS: Final Enthalpy     = -3.42157597E+002 eV
 LBFGS: Final <frequency>  =     923.38835 cm-1
 
 ************************************** Forces **************************************
 *                                                                                  *
 *                           Cartesian components (eV/A)                            *
 * -------------------------------------------------------------------------------- *
 *                         x                    y                    z              *
 *                                                                                  *
 * Si              1      0.00381              0.00599              0.00161         *
 * Si              2     -0.00486             -0.00717             -0.00183         *
 * H:mu            1      0.00105              0.00118              0.00022         *
 *                                                                                  *
 ************************************************************************************
 
 Pseudo atomic calculation performed for Si 3s2 3p2
 
 Converged in 21 iterations to a total energy of -162.9266 eV
 
 Pseudo atomic calculation performed for H:mu 1s1
 
 Converged in 18 iterations to a total energy of -11.6786 eV
Charge spilling parameter for spin component 1 = 2.32%
 
            Orbital Populations       
     Ion    Atom   Orbital             Charge
  -------------------------------------------
     Si     1      S                    0.980
     Si     1      Px                   0.889
     Si     1      Py                   0.884
     Si     1      Pz                   0.655
     Si     2      S                    0.984
     Si     2      Px                   0.737
     Si     2      Py                   0.748
     Si     2      Pz                   0.911
   H:mu     1      S                    1.214
  -------------------------------------------
                           Total:       8.000
  -------------------------------------------
 
     Atomic Populations (Mulliken)
     -----------------------------
Species          Ion     s      p      d      f     Total  Charge (e)
=====================================================================
  Si              1     0.98   2.43   0.00   0.00   3.41     0.59
  Si              2     0.98   2.40   0.00   0.00   3.38     0.62
  H:mu            1     1.21   0.00   0.00   0.00   1.21    -0.21
=====================================================================
 
                 Bond                   Population      Length (A)
======================================================================
              Si 2 -- H:mu 1                -1.73        1.47324
              Si 1 -- H:mu 1                -1.77        1.47514
              Si 1 -- Si 2                   2.84        2.22702
======================================================================
 

Writing analysis data to ./castep-pymuonsuite-test-data/muon-airss-out-castep/castep/Si2_23/Si2_23.castep_bin

Writing model to ./castep-pymuonsuite-test-data/muon-airss-out-castep/castep/Si2_23/Si2_23.check
 
 A BibTeX formatted list of references used in this run has been written to 
 ./castep-pymuonsuite-test-data/muon-airss-out-castep/castep/Si2_23/Si2_23.bib
 
Initialisation time =      5.29 s
Calculation time    =      2.79 s
Finalisation time   =      0.13 s
Total time          =      8.20 s
Peak Memory Use     = 814168 kB
  
Overall parallel efficiency rating: Terrible (32%)                              
  
Data was distributed by:-
G-vector (8-way); efficiency rating: Terrible (32%)                             
  
Parallel notes:
1) Calculation only took 8.1 s, so efficiency estimates may be inaccurate.      
