 +-------------------------------------------------+
 |                                                 |
 |      CCC   AA    SSS  TTTTT  EEEEE  PPPP        |
 |     C     A  A  S       T    E      P   P       |
 |     C     AAAA   SS     T    EEE    PPPP        |
 |     C     A  A     S    T    E      P           |
 |      CCC  A  A  SSS     T    EEEEE  P           |
 |                                                 |
 +-------------------------------------------------+
 |                                                 |
 | Welcome to Academic Release CASTEP version 19.11|          
 | Ab Initio Total Energy Program                  |
 |                                                 |
 | Authors:                                        |
 | M. Segall, M. Probert, C. Pickard, P. Hasnip,   |
 | S. Clark, K. Refson, J. R. Yates, M. Payne      |
 |                                                 |
 | Contributors:                                   |
 | P. Lindan, P. Haynes, J. White, V. Milman,      |
 | N. Govind, M. Gibson, P. Tulip, V. Cocula,      |
 | B. Montanari, D. Quigley, M. Glover,            |
 | L. Bernasconi, A. Perlov, M. Plummer,           |
 | E. McNellis, J. Meyer, J. Gale, D. Jochym       |
 | J. Aarons, B. Walker, R. Gillen, D. Jones       |
 | T. Green, I. J. Bush, C. J. Armstrong,          |
 | E. J. Higgins, E. L. Brown, M. S. McFly,        |
 | J. Wilkins, B-C. Shih, P. J. P. Byrne           |
 |                                                 |
 | Copyright (c) 2000 - 2018                       |
 |                                                 |
 |     Distributed under the terms of an           |
 |     Agreement between the United Kingdom        |
 |     Car-Parrinello (UKCP) Consortium,           |
 |     Daresbury Laboratory and Accelrys, Inc.     |
 |                                                 |
 | Please cite                                     |
 |                                                 |
 |     "First principles methods using CASTEP"     |
 |                                                 |
 |         Zeitschrift fuer Kristallographie       |
 |           220(5-6) pp. 567-570 (2005)           |
 |                                                 |
 | S. J. Clark, M. D. Segall, C. J. Pickard,       |
 | P. J. Hasnip, M. J. Probert, K. Refson,         |
 | M. C. Payne                                     |
 |                                                 |
 |       in all publications arising from          |
 |              your use of CASTEP                 |
 |                                                 |
 +-------------------------------------------------+
 |                                                 |
 |              http://www.castep.org              |
 |                                                 |
 +-------------------------------------------------+
 
 
 
 Compiled for linux_x86_64_ifort18 on Fri, 05 Jul 2019 15:43:56 +0100
 from code version 
 0a9e5daac2f4+ Castep191_branch Wed, 03 Jul 2019 08:43:28 +0000
 Compiler: Intel Fortran 18.0.3.222; Optimisation: fast
 MATHLIBS: Intel MKL(2018.0.3) (LAPACK version 3.7.0)
 FFT Lib : default
 Fundamental constants values: CODATA 2014
 
 Run started: Tue, 17 Nov 2020 15:07:43 +0000
 
 Atomic calculation performed for Si: 1s2 2s2 2p6 3s2 3p2
 
 Converged in 55 iterations to an ae energy of -7859.183 eV
 
   ============================================================                
   | Pseudopotential Report - Date of generation 17-11-2020   |                
   ------------------------------------------------------------                
   | Element: Si Ionic charge:  4.00 Level of theory: LDA     |                
   | Atomic Solver: Koelling-Harmon                           |                
   |                                                          |                
   |               Reference Electronic Structure             |                
   |         Orbital         Occupation         Energy        |                
   |            3s              2.000           -0.400        |                
   |            3p              2.000           -0.153        |                
   |                                                          |                
   |                 Pseudopotential Definition               |                
   |        Beta     l      e      Rc     scheme   norm       |                
   |          1      0   -0.400   1.797     qc      0         |                
   |          2      0    0.250   1.797     qc      0         |                
   |          3      1   -0.153   1.797     qc      0         |                
   |          4      1    0.250   1.797     qc      0         |                
   |          5      2    0.000   1.797     qc      0         |                
   |          6      2    0.250   1.797     qc      0         |                
   |         loc     3    0.000   1.797     pn      0         |                
   |                                                          |                
   | Augmentation charge Rinner = 1.255                       |                
   | Partial core correction Rc = 1.255                       |                
   ------------------------------------------------------------                
   | "3|1.8|5|6|7|30:31:32"                                   |                
   ------------------------------------------------------------                
   |      Author: Chris J. Pickard, Cambridge University      |                
   ============================================================                
 
 Atomic calculation performed for H:mu: 1s1
 
 Converged in 41 iterations to an ae energy of -12.134 eV
 
   ============================================================                
   | Pseudopotential Report - Date of generation 17-11-2020   |                
   ------------------------------------------------------------                
   | Element: H Ionic charge:  1.00 Level of theory: LDA      |                
   | Atomic Solver: Koelling-Harmon                           |                
   |                                                          |                
   |               Reference Electronic Structure             |                
   |         Orbital         Occupation         Energy        |                
   |            1s              1.000           -0.234        |                
   |                                                          |                
   |                 Pseudopotential Definition               |                
   |        Beta     l      e      Rc     scheme   norm       |                
   |          1      0   -0.234   0.599     qc      0         |                
   |          2      0    0.250   0.599     qc      0         |                
   |         loc     1    0.000   0.599     pn      0         |                
   |                                                          |                
   | Augmentation charge Rinner = 0.421                       |                
   | No partial core correction                               |                
   ------------------------------------------------------------                
   | "1|0.6|13|15|17|10(qc=8)"                                |                
   ------------------------------------------------------------                
   |      Author: Chris J. Pickard, Cambridge University      |                
   ============================================================                
 
 Pseudo atomic calculation performed for Si 3s2 3p2
 
 Converged in 21 iterations to a total energy of -162.9266 eV
 
 Pseudo atomic calculation performed for H:mu 1s1
 
 Converged in 18 iterations to a total energy of -11.6786 eV
 Calculation parallelised over 8 processes.
 Data is distributed by G-vector(8-way)

 ************************************ Title ************************************
 

 ***************************** General Parameters ******************************
  
 output verbosity                               : normal  (1)
 write checkpoint data to                       : ./castep-pymuonsuite-test-data/muon-airss-out-castep/castep/Si2_12/Si2_12.check
 type of calculation                            : geometry optimization
 stress calculation                             : off
 density difference calculation                 : off
 electron localisation func (ELF) calculation   : off
 Hirshfeld analysis                             : off
 unlimited duration calculation
 timing information                             : on
 memory usage estimate                          : on
 write extra output files                       : on
 write final potential to formatted file        : off
 write final density to formatted file          : on
 write structure in CELL formatted file         : on
 write BibTeX reference list                    : on
 write OTFG pseudopotential files               : on
 write electrostatic potential file             : on
 write bands file                               : on
 checkpoint writing                             : both castep_bin and check files
  
 output         length unit                     : A
 output           mass unit                     : amu
 output           time unit                     : ps
 output         charge unit                     : e
 output           spin unit                     : hbar/2
 output         energy unit                     : eV
 output          force unit                     : eV/A
 output       velocity unit                     : A/ps
 output       pressure unit                     : GPa
 output     inv_length unit                     : 1/A
 output      frequency unit                     : cm-1
 output force constant unit                     : eV/A**2
 output         volume unit                     : A**3
 output   IR intensity unit                     : (D/A)**2/amu
 output         dipole unit                     : D
 output         efield unit                     : eV/A/e
 output        entropy unit                     : J/mol/K
  
 wavefunctions paging                           : none
 random number generator seed                   : randomised (150743496)
 data distribution                              : optimal for this architecture
 optimization strategy                          : maximize speed(+++)

 *********************** Exchange-Correlation Parameters ***********************
  
 using functional                               : Local Density Approximation
 relativistic treatment                         : Koelling-Harmon
 DFT+D: Semi-empirical dispersion correction    : off

 ************************* Pseudopotential Parameters **************************
  
 pseudopotential representation                 : reciprocal space
 <beta|phi> representation                      : reciprocal space
 spin-orbit coupling                            : off

 **************************** Basis Set Parameters *****************************
  
 plane wave basis set cut-off                   :   150.0000   eV
 size of standard grid                          :     2.0000
 size of   fine   gmax                          :    12.5491   1/A
 finite basis set correction                    : none

 **************************** Electronic Parameters ****************************
  
 number of  electrons                           :  8.000    
 net charge of system                           : +1.000    
 treating system as non-spin-polarized
 number of bands                                :          4

 ********************* Electronic Minimization Parameters **********************
  
 Method: Treating system as non-metallic,
         and number of  SD  steps               :          1
         and number of  CG  steps               :          4
  
 total energy / atom convergence tol.           : 0.1000E-07   eV
 eigen-energy convergence tolerance             : 0.7500E-08   eV
 max force / atom convergence tol.              : ignored
 convergence tolerance window                   :          3   cycles
 max. number of SCF cycles                      :        200
 periodic dipole correction                     : NONE

 ************************** Density Mixing Parameters **************************
  
 density-mixing scheme                          : Broyden
 max. length of mixing history                  :         20
 charge density mixing amplitude                : 0.8000    
 cut-off energy for mixing                      :  150.0       eV

 *********************** Population Analysis Parameters ************************
  
 Population analysis with cutoff                :  3.000       A
 Population analysis output                     : summary and pdos components

 ********************** Geometry Optimization Parameters ***********************
  
 optimization method                            : LBFGS
 max. no. of LBFGS updates                      : unbounded
 variable cell method                           : fixed basis quality
 max. number of steps                           :        300
 estimated bulk modulus                         :  500.0       GPa
 estimated <frequency>                          :  1668.       cm-1
 geom line minimiser                            : on
 with line minimiser tolerance                  :     0.4000
 total energy convergence tolerance             : 0.2000E-04   eV/atom
        max ionic |force| tolerance             : 0.5000E-01   eV/A
 max ionic |displacement| tolerance             : 0.1000E-02   A
   max |stress component| tolerance             : 0.1000       GPa
 convergence tolerance window                   :          2   steps
 backup results every                           :          5   steps
 write geom trajectory file                     : on

 *******************************************************************************
  
 
                           -------------------------------
                                      Unit Cell
                           -------------------------------
        Real Lattice(A)                      Reciprocal Lattice(1/A)
     2.6954640     2.6954640     0.0000000        1.165510893   1.165510893  -1.165510893
     2.6954640     0.0000000     2.6954640        1.165510893  -1.165510893   1.165510893
     0.0000000     2.6954640     2.6954640       -1.165510893   1.165510893   1.165510893
 
                       Lattice parameters(A)       Cell Angles
                    a =      3.811962          alpha =   60.000000
                    b =      3.811962          beta  =   60.000000
                    c =      3.811962          gamma =   60.000000
 
                       Current cell volume =            39.167928       A**3
                                   density =             1.459841   AMU/A**3
                                           =             2.424123     g/cm^3
 
                           -------------------------------
                                     Cell Contents
                           -------------------------------
                         Total number of ions in cell =    3
                      Total number of species in cell =    2
                        Max number of any one species =    2
 
            xxxxxxxxxxxxxxxxxxxxxxxxxxxxxxxxxxxxxxxxxxxxxxxxxxxxxxxxxxxx
            x  Element    Atom        Fractional coordinates of atoms  x
            x            Number           u          v          w      x
            x----------------------------------------------------------x
            x  Si           1         0.000000   0.000000   0.000000   x 
            x  Si           2         0.250000   0.250000   0.250000   x 
            x  H:mu         1         0.277705   0.695933   0.439208   x 
            xxxxxxxxxxxxxxxxxxxxxxxxxxxxxxxxxxxxxxxxxxxxxxxxxxxxxxxxxxxx
 
 
                         No user defined ionic velocities
 
                           -------------------------------
                                   Details of Species
                           -------------------------------
 
                               Mass of species in AMU
                                    Si   28.0855000
                                    H:mu    0.1134289
 
                          Electric Quadrupole Moment (Barn)
                                    Si    1.0000000 No Isotope Defined
                                    H:mu    0.0028600 Isotope  2
 
                          Files used for pseudopotentials:
                                    Si 3|1.8|5|6|7|30:31:32
                                    H:mu 1|0.6|13|15|17|10(qc=8)
 
                           -------------------------------
                              k-Points For BZ Sampling
                           -------------------------------
                       MP grid size for SCF calculation is  1  1  1
                            with an offset of   0.000  0.000  0.000
                       Number of kpoints used =             1
 
                           -------------------------------
                               Symmetry and Constraints
                           -------------------------------
 
                      Maximum deviation from symmetry =  0.00000         ANG
 
                      Number of symmetry operations   =           1
                      Number of ionic constraints     =           3
                      Point group of crystal =     1: C1, 1, 1
                      Space group of crystal =     1: P1, P 1
 
             Set iprint > 1 for details on symmetry rotations/translations
 
                         Centre of mass is constrained
             Set iprint > 1 for details of linear ionic constraints
 
                         Number of cell constraints= 6
                         Cell constraints are:  0 0 0 0 0 0
 
                         External pressure/stress (GPa)
                          0.00000   0.00000   0.00000
                                    0.00000   0.00000
                                              0.00000
  
+---------------- MEMORY AND SCRATCH DISK ESTIMATES PER PROCESS --------------+
|                                                     Memory          Disk    |
| Baseline code, static data and system overhead      463.0 MB         0.0 MB |
| BLAS internal memory storage                          0.0 MB         0.0 MB |
| Model and support data                               25.0 MB         0.0 MB |
| Electronic energy minimisation requirements           0.2 MB         0.0 MB |
| Force calculation requirements                        0.1 MB         0.0 MB |
|                                               ----------------------------- |
| Approx. total storage required per process          488.2 MB         0.0 MB |
|                                                                             |
| Requirements will fluctuate during execution and may exceed these estimates |
+-----------------------------------------------------------------------------+
Calculating total energy with cut-off of  150.000 eV.
------------------------------------------------------------------------ <-- SCF
SCF loop      Energy                           Energy gain       Timer   <-- SCF
                                               per atom          (sec)   <-- SCF
------------------------------------------------------------------------ <-- SCF
Initial  -7.98987044E+001                                          5.72  <-- SCF
      1  -3.14105677E+002                    7.80689907E+001       5.73  <-- SCF
      2  -3.39783042E+002                    8.55912189E+000       5.73  <-- SCF
      3  -3.40110185E+002                    1.09047687E-001       5.74  <-- SCF
      4  -3.38996482E+002                   -3.71234381E-001       5.75  <-- SCF
      5  -3.38940808E+002                   -1.85582149E-002       5.76  <-- SCF
      6  -3.38930392E+002                   -3.47182513E-003       5.77  <-- SCF
      7  -3.38891759E+002                   -1.28776254E-002       5.78  <-- SCF
      8  -3.38883967E+002                   -2.59725433E-003       5.78  <-- SCF
      9  -3.38883532E+002                   -1.45173683E-004       5.79  <-- SCF
     10  -3.38881607E+002                   -6.41665058E-004       5.80  <-- SCF
     11  -3.38881504E+002                   -3.44575509E-005       5.81  <-- SCF
     12  -3.38881275E+002                   -7.63210982E-005       5.82  <-- SCF
     13  -3.38881337E+002                    2.06858808E-005       5.83  <-- SCF
     14  -3.38881246E+002                   -3.02920374E-005       5.85  <-- SCF
     15  -3.38881239E+002                   -2.11783466E-006       5.85  <-- SCF
     16  -3.38881249E+002                    3.36240662E-006       5.86  <-- SCF
     17  -3.38881245E+002                   -1.43720333E-006       5.88  <-- SCF
     18  -3.38881245E+002                   -4.86654214E-008       5.89  <-- SCF
     19  -3.38881242E+002                   -8.34364019E-007       5.90  <-- SCF
     20  -3.38881243E+002                    3.31912715E-008       5.91  <-- SCF
     21  -3.38881243E+002                    6.91546936E-008       5.92  <-- SCF
     22  -3.38881243E+002                   -6.35923304E-009       5.93  <-- SCF
     23  -3.38881243E+002                   -7.77201462E-009       5.93  <-- SCF
     24  -3.38881243E+002                    9.64596465E-009       5.94  <-- SCF
------------------------------------------------------------------------ <-- SCF
 
Final energy =  -338.8812427907     eV
(energy not corrected for finite basis set)
 

Writing analysis data to ./castep-pymuonsuite-test-data/muon-airss-out-castep/castep/Si2_12/Si2_12.castep_bin

Writing model to ./castep-pymuonsuite-test-data/muon-airss-out-castep/castep/Si2_12/Si2_12.check
 
+---------------- MEMORY AND SCRATCH DISK ESTIMATES PER PROCESS --------------+
|                                                     Memory          Disk    |
| Model and support data                               36.0 MB         0.0 MB |
| Electronic energy minimisation requirements           0.2 MB         0.0 MB |
| Geometry minimisation requirements                    0.2 MB         0.0 MB |
|                                               ----------------------------- |
| Approx. total storage required per process           36.3 MB         0.0 MB |
|                                                                             |
| Requirements will fluctuate during execution and may exceed these estimates |
+-----------------------------------------------------------------------------+
 
 
 ************************************** Forces **************************************
 *                                                                                  *
 *                           Cartesian components (eV/A)                            *
 * -------------------------------------------------------------------------------- *
 *                         x                    y                    z              *
 *                                                                                  *
 * Si              1      1.59893              3.07636             -4.27771         *
 * Si              2     -1.74816              0.43498              2.96776         *
 * H:mu            1      0.14923             -3.51134              1.30995         *
 *                                                                                  *
 ************************************************************************************
 LBFGS: finished iteration     0 with enthalpy= -3.38881243E+002 eV
  
 +-----------+-----------------+-----------------+------------+-----+ <-- LBFGS
 | Parameter |      value      |    tolerance    |    units   | OK? | <-- LBFGS
 +-----------+-----------------+-----------------+------------+-----+ <-- LBFGS
 |  dE/ion   |   0.000000E+000 |   2.000000E-005 |         eV | No  | <-- LBFGS
 |  |F|max   |   5.506300E+000 |   5.000000E-002 |       eV/A | No  | <-- LBFGS
 |  |dR|max  |   0.000000E+000 |   1.000000E-003 |          A | No  | <-- LBFGS
 +-----------+-----------------+-----------------+------------+-----+ <-- LBFGS
  

================================================================================
 Starting LBFGS iteration          1 ...
================================================================================
  
 +------------+-------------+-------------+-----------------+ <-- min LBFGS
 |    Step    |   lambda    |   F.delta'  |    enthalpy     | <-- min LBFGS
 +------------+-------------+-------------+-----------------+ <-- min LBFGS
 |  previous  |    0.000000 |    0.756174 |     -338.881243 | <-- min LBFGS
 +------------+-------------+-------------+-----------------+ <-- min LBFGS
  

--------------------------------------------------------------------------------
 LBFGS: starting iteration         1 with trial guess (lambda=  1.000000)
--------------------------------------------------------------------------------
 
                           -------------------------------
                                     Cell Contents
                           -------------------------------
 
            xxxxxxxxxxxxxxxxxxxxxxxxxxxxxxxxxxxxxxxxxxxxxxxxxxxxxxxxxxxxxxxxx
            x  Element         Atom        Fractional coordinates of atoms  x
            x                 Number           u          v          w      x
            x---------------------------------------------------------------x
            x  Si                1         0.008654  -0.005563  -0.002707   x
            x  Si                2         0.245862   0.250758   0.254979   x
            x  H:mu              1         0.273189   0.700738   0.436936   x
            xxxxxxxxxxxxxxxxxxxxxxxxxxxxxxxxxxxxxxxxxxxxxxxxxxxxxxxxxxxxxxxxx
 
 
------------------------------------------------------------------------ <-- SCF
SCF loop      Energy                           Energy gain       Timer   <-- SCF
                                               per atom          (sec)   <-- SCF
------------------------------------------------------------------------ <-- SCF
Initial  -3.39142582E+002                                          6.04  <-- SCF
      1  -3.39169113E+002                    8.84358251E-003       6.04  <-- SCF
      2  -3.39170188E+002                    3.58434350E-004       6.05  <-- SCF
      3  -3.39169754E+002                   -1.44478290E-004       6.06  <-- SCF
      4  -3.39159671E+002                   -3.36106033E-003       6.07  <-- SCF
      5  -3.39159775E+002                    3.45766943E-005       6.08  <-- SCF
      6  -3.39159288E+002                   -1.62331322E-004       6.09  <-- SCF
      7  -3.39159293E+002                    1.69518566E-006       6.10  <-- SCF
      8  -3.39159291E+002                   -8.43462131E-007       6.11  <-- SCF
      9  -3.39159290E+002                   -2.98262418E-007       6.12  <-- SCF
     10  -3.39159290E+002                    8.54568263E-010       6.12  <-- SCF
     11  -3.39159290E+002                   -1.84748062E-008       6.13  <-- SCF
     12  -3.39159290E+002                    2.41717400E-008       6.14  <-- SCF
     13  -3.39159290E+002                   -1.44009850E-008       6.15  <-- SCF
     14  -3.39159290E+002                    4.04635930E-008       6.16  <-- SCF
     15  -3.39159290E+002                   -5.98662143E-008       6.16  <-- SCF
     16  -3.39159290E+002                    1.30656926E-007       6.17  <-- SCF
     17  -3.39159290E+002                   -1.07334518E-007       6.18  <-- SCF
     18  -3.39159290E+002                   -1.36703531E-008       6.19  <-- SCF
     19  -3.39159290E+002                   -3.27859485E-009       6.20  <-- SCF
     20  -3.39159290E+002                    4.41419520E-009       6.20  <-- SCF
------------------------------------------------------------------------ <-- SCF
 
Final energy =  -339.1592896120     eV
(energy not corrected for finite basis set)
 
 
 ************************************** Forces **************************************
 *                                                                                  *
 *                           Cartesian components (eV/A)                            *
 * -------------------------------------------------------------------------------- *
 *                         x                    y                    z              *
 *                                                                                  *
 * Si              1      1.30799              2.95515             -3.49648         *
 * Si              2     -1.67036              0.60718              2.31635         *
 * H:mu            1      0.36237             -3.56232              1.18013         *
 *                                                                                  *
 ************************************************************************************
  
 +------------+-------------+-------------+-----------------+ <-- min LBFGS
 |    Step    |   lambda    |   F.delta'  |    enthalpy     | <-- min LBFGS
 +------------+-------------+-------------+-----------------+ <-- min LBFGS
 |  previous  |    0.000000 |    0.756174 |     -338.881243 | <-- min LBFGS
 | trial step |    1.000000 |    0.673999 |     -339.159290 | <-- min LBFGS
 +------------+-------------+-------------+-----------------+ <-- min LBFGS
  

--------------------------------------------------------------------------------
 LBFGS: improving iteration         1 with line minimization (lambda=  9.201942)
--------------------------------------------------------------------------------
 
                           -------------------------------
                                     Cell Contents
                           -------------------------------
 
            xxxxxxxxxxxxxxxxxxxxxxxxxxxxxxxxxxxxxxxxxxxxxxxxxxxxxxxxxxxxxxxxx
            x  Element         Atom        Fractional coordinates of atoms  x
            x                 Number           u          v          w      x
            x---------------------------------------------------------------x
            x  Si                1         0.079630  -0.051188  -0.024906   x
            x  Si                2         0.211924   0.256979   0.295813   x
            x  H:mu              1         0.236150   0.740143   0.418301   x
            xxxxxxxxxxxxxxxxxxxxxxxxxxxxxxxxxxxxxxxxxxxxxxxxxxxxxxxxxxxxxxxxx
 
 
------------------------------------------------------------------------ <-- SCF
SCF loop      Energy                           Energy gain       Timer   <-- SCF
                                               per atom          (sec)   <-- SCF
------------------------------------------------------------------------ <-- SCF
Initial  -3.41181445E+002                                          6.23  <-- SCF
      1  -3.40502121E+002                   -2.26441154E-001       6.23  <-- SCF
      2  -3.40707264E+002                    6.83807637E-002       6.24  <-- SCF
      3  -3.40381748E+002                   -1.08505249E-001       6.25  <-- SCF
      4  -3.40296416E+002                   -2.84437954E-002       6.26  <-- SCF
      5  -3.40297000E+002                    1.94623171E-004       6.27  <-- SCF
      6  -3.40296680E+002                   -1.06723377E-004       6.27  <-- SCF
      7  -3.40296684E+002                    1.23868835E-006       6.28  <-- SCF
      8  -3.40296676E+002                   -2.51414199E-006       6.29  <-- SCF
      9  -3.40296675E+002                   -2.87116713E-007       6.30  <-- SCF
     10  -3.40296676E+002                    2.29029225E-008       6.30  <-- SCF
     11  -3.40296676E+002                    6.30669058E-009       6.31  <-- SCF
     12  -3.40296676E+002                    5.79143287E-010       6.31  <-- SCF
------------------------------------------------------------------------ <-- SCF
 
Final energy =  -340.2966755395     eV
(energy not corrected for finite basis set)
 
 
 ************************************** Forces **************************************
 *                                                                                  *
 *                           Cartesian components (eV/A)                            *
 * -------------------------------------------------------------------------------- *
 *                         x                    y                    z              *
 *                                                                                  *
 * Si              1      0.44554              3.98840              2.89520         *
 * Si              2     -1.87882             -1.38544             -2.54679         *
 * H:mu            1      1.43328             -2.60295             -0.34841         *
 *                                                                                  *
 ************************************************************************************
  
 +------------+-------------+-------------+-----------------+ <-- min LBFGS
 |    Step    |   lambda    |   F.delta'  |    enthalpy     | <-- min LBFGS
 +------------+-------------+-------------+-----------------+ <-- min LBFGS
 |  previous  |    0.000000 |    0.756174 |     -338.881243 | <-- min LBFGS
 | trial step |    1.000000 |    0.673999 |     -339.159290 | <-- min LBFGS
 |  line step |    9.201942 |    0.061874 |     -340.296676 | <-- min LBFGS
 +------------+-------------+-------------+-----------------+ <-- min LBFGS
  
 LBFGS: finished iteration     1 with enthalpy= -3.40296676E+002 eV
  
 +-----------+-----------------+-----------------+------------+-----+ <-- LBFGS
 | Parameter |      value      |    tolerance    |    units   | OK? | <-- LBFGS
 +-----------+-----------------+-----------------+------------+-----+ <-- LBFGS
 |  dE/ion   |   4.718109E-001 |   2.000000E-005 |         eV | No  | <-- LBFGS
 |  |F|max   |   4.948535E+000 |   5.000000E-002 |       eV/A | No  | <-- LBFGS
 |  |dR|max  |   2.640182E-001 |   1.000000E-003 |          A | No  | <-- LBFGS
 +-----------+-----------------+-----------------+------------+-----+ <-- LBFGS
  

================================================================================
 Starting LBFGS iteration          2 ...
================================================================================
  
 +------------+-------------+-------------+-----------------+ <-- min LBFGS
 |    Step    |   lambda    |   F.delta'  |    enthalpy     | <-- min LBFGS
 +------------+-------------+-------------+-----------------+ <-- min LBFGS
 |  previous  |    0.000000 |    0.399385 |     -340.296676 | <-- min LBFGS
 +------------+-------------+-------------+-----------------+ <-- min LBFGS
  

--------------------------------------------------------------------------------
 LBFGS: starting iteration         2 with trial guess (lambda=  1.000000)
--------------------------------------------------------------------------------
 
                           -------------------------------
                                     Cell Contents
                           -------------------------------
 
            xxxxxxxxxxxxxxxxxxxxxxxxxxxxxxxxxxxxxxxxxxxxxxxxxxxxxxxxxxxxxxxxx
            x  Element         Atom        Fractional coordinates of atoms  x
            x                 Number           u          v          w      x
            x---------------------------------------------------------------x
            x  Si                1         0.095759  -0.061196  -0.022667   x
            x  Si                2         0.204231   0.255050   0.301999   x
            x  H:mu              1         0.227714   0.752080   0.409876   x
            xxxxxxxxxxxxxxxxxxxxxxxxxxxxxxxxxxxxxxxxxxxxxxxxxxxxxxxxxxxxxxxxx
 
 
------------------------------------------------------------------------ <-- SCF
SCF loop      Energy                           Energy gain       Timer   <-- SCF
                                               per atom          (sec)   <-- SCF
------------------------------------------------------------------------ <-- SCF
Initial  -3.40856876E+002                                          6.35  <-- SCF
      1  -3.40619332E+002                   -7.91812420E-002       6.35  <-- SCF
      2  -3.40627513E+002                    2.72698948E-003       6.36  <-- SCF
      3  -3.40588602E+002                   -1.29702256E-002       6.37  <-- SCF
      4  -3.40581353E+002                   -2.41649966E-003       6.38  <-- SCF
      5  -3.40581219E+002                   -4.45546953E-005       6.38  <-- SCF
      6  -3.40581147E+002                   -2.39763417E-005       6.39  <-- SCF
      7  -3.40581140E+002                   -2.50254514E-006       6.40  <-- SCF
      8  -3.40581138E+002                   -4.90350312E-007       6.41  <-- SCF
      9  -3.40581138E+002                   -5.38213015E-009       6.42  <-- SCF
     10  -3.40581138E+002                    2.65027659E-009       6.42  <-- SCF
------------------------------------------------------------------------ <-- SCF
 
Final energy =  -340.5811382723     eV
(energy not corrected for finite basis set)
 
 
 ************************************** Forces **************************************
 *                                                                                  *
 *                           Cartesian components (eV/A)                            *
 * -------------------------------------------------------------------------------- *
 *                         x                    y                    z              *
 *                                                                                  *
 * Si              1      0.84607              3.85048              3.13292         *
 * Si              2     -2.13547             -1.90323             -2.28826         *
 * H:mu            1      1.28939             -1.94725             -0.84466         *
 *                                                                                  *
 ************************************************************************************
  
 +------------+-------------+-------------+-----------------+ <-- min LBFGS
 |    Step    |   lambda    |   F.delta'  |    enthalpy     | <-- min LBFGS
 +------------+-------------+-------------+-----------------+ <-- min LBFGS
 |  previous  |    0.000000 |    0.399385 |     -340.296676 | <-- min LBFGS
 | trial step |    1.000000 |    0.360057 |     -340.581138 | <-- min LBFGS
 +------------+-------------+-------------+-----------------+ <-- min LBFGS
  

--------------------------------------------------------------------------------
 LBFGS: improving iteration         2 with line minimization (lambda=  4.705368)
--------------------------------------------------------------------------------
 
                           -------------------------------
                                     Cell Contents
                           -------------------------------
 
            xxxxxxxxxxxxxxxxxxxxxxxxxxxxxxxxxxxxxxxxxxxxxxxxxxxxxxxxxxxxxxxxx
            x  Element         Atom        Fractional coordinates of atoms  x
            x                 Number           u          v          w      x
            x---------------------------------------------------------------x
            x  Si                1         0.155522  -0.098281  -0.014369   x
            x  Si                2         0.175727   0.247903   0.324919   x
            x  H:mu              1         0.196456   0.796311   0.378659   x
            xxxxxxxxxxxxxxxxxxxxxxxxxxxxxxxxxxxxxxxxxxxxxxxxxxxxxxxxxxxxxxxxx
 
 
------------------------------------------------------------------------ <-- SCF
SCF loop      Energy                           Energy gain       Timer   <-- SCF
                                               per atom          (sec)   <-- SCF
------------------------------------------------------------------------ <-- SCF
Initial  -3.42060810E+002                                          6.45  <-- SCF
      1  -3.41241438E+002                   -2.73123952E-001       6.45  <-- SCF
      2  -3.41525157E+002                    9.45728123E-002       6.46  <-- SCF
      3  -3.41578542E+002                    1.77949086E-002       6.47  <-- SCF
      4  -3.41116999E+002                   -1.53847518E-001       6.48  <-- SCF
      5  -3.41895731E+002                    2.59577234E-001       6.49  <-- SCF
      6  -3.41360265E+002                   -1.78488456E-001       6.49  <-- SCF
      7  -3.41749775E+002                    1.29836486E-001       6.50  <-- SCF
      8  -3.41268075E+002                   -1.60566745E-001       6.51  <-- SCF
      9  -3.41256143E+002                   -3.97730887E-003       6.52  <-- SCF
     10  -3.41215247E+002                   -1.36320256E-002       6.53  <-- SCF
     11  -3.41420003E+002                    6.82521724E-002       6.54  <-- SCF
     12  -3.41195402E+002                   -7.48670095E-002       6.55  <-- SCF
     13  -3.41649963E+002                    1.51520207E-001       6.56  <-- SCF
     14  -3.41256151E+002                   -1.31270505E-001       6.57  <-- SCF
     15  -3.41510853E+002                    8.49006044E-002       6.58  <-- SCF
     16  -3.41231011E+002                   -9.32805324E-002       6.59  <-- SCF
     17  -3.41732419E+002                    1.67135758E-001       6.60  <-- SCF
     18  -3.41297247E+002                   -1.45057197E-001       6.61  <-- SCF
     19  -3.41433827E+002                    4.55267998E-002       6.62  <-- SCF
     20  -3.41233578E+002                   -6.67498993E-002       6.63  <-- SCF
     21  -3.41605265E+002                    1.23895688E-001       6.64  <-- SCF
     22  -3.41343739E+002                   -8.71754149E-002       6.65  <-- SCF
     23  -3.41786591E+002                    1.47617414E-001       6.67  <-- SCF
     24  -3.41228181E+002                   -1.86136624E-001       6.67  <-- SCF
     25  -3.42157038E+002                    3.09618899E-001       6.69  <-- SCF
     26  -3.41386265E+002                   -2.56924224E-001       6.70  <-- SCF
     27  -3.41970571E+002                    1.94768785E-001       6.71  <-- SCF
     28  -3.41225379E+002                   -2.48397453E-001       6.72  <-- SCF
     29  -3.42175408E+002                    3.16676211E-001       6.73  <-- SCF
     30  -3.41395685E+002                   -2.59907642E-001       6.74  <-- SCF
     31  -3.41857057E+002                    1.53790667E-001       6.75  <-- SCF
     32  -3.41199011E+002                   -2.19348452E-001       6.76  <-- SCF
     33  -3.42091686E+002                    2.97558321E-001       6.77  <-- SCF
     34  -3.41401078E+002                   -2.30202858E-001       6.78  <-- SCF
     35  -3.41998865E+002                    1.99262588E-001       6.79  <-- SCF
     36  -3.41195814E+002                   -2.67683709E-001       6.80  <-- SCF
     37  -3.42112950E+002                    3.05711911E-001       6.82  <-- SCF
     38  -3.41408526E+002                   -2.34807955E-001       6.83  <-- SCF
     39  -3.41984786E+002                    1.92086756E-001       6.84  <-- SCF
     40  -3.41199078E+002                   -2.61902707E-001       6.85  <-- SCF
     41  -3.42255185E+002                    3.52035443E-001       6.86  <-- SCF
     42  -3.41407381E+002                   -2.82601248E-001       6.87  <-- SCF
     43  -3.41931213E+002                    1.74610819E-001       6.88  <-- SCF
     44  -3.41192582E+002                   -2.46210306E-001       6.89  <-- SCF
     45  -3.42089389E+002                    2.98935640E-001       6.90  <-- SCF
     46  -3.41399622E+002                   -2.29922519E-001       6.91  <-- SCF
     47  -3.42007219E+002                    2.02532423E-001       6.92  <-- SCF
     48  -3.41206217E+002                   -2.67000728E-001       6.93  <-- SCF
     49  -3.42123476E+002                    3.05753050E-001       6.95  <-- SCF
     50  -3.41402651E+002                   -2.40274981E-001       6.96  <-- SCF
     51  -3.42000510E+002                    1.99286393E-001       6.97  <-- SCF
     52  -3.41201907E+002                   -2.66201194E-001       6.98  <-- SCF
     53  -3.42151995E+002                    3.16696120E-001       6.99  <-- SCF
     54  -3.41408246E+002                   -2.47916361E-001       7.00  <-- SCF
     55  -3.41985714E+002                    1.92489495E-001       7.01  <-- SCF
     56  -3.41198034E+002                   -2.62560278E-001       7.02  <-- SCF
     57  -3.42158034E+002                    3.20000246E-001       7.03  <-- SCF
     58  -3.41409749E+002                   -2.49428331E-001       7.04  <-- SCF
     59  -3.41987439E+002                    1.92563291E-001       7.05  <-- SCF
     60  -3.41198527E+002                   -2.62970775E-001       7.06  <-- SCF
     61  -3.42159282E+002                    3.20251753E-001       7.08  <-- SCF
     62  -3.41408704E+002                   -2.50192696E-001       7.09  <-- SCF
     63  -3.41971751E+002                    1.87682395E-001       7.10  <-- SCF
     64  -3.41198805E+002                   -2.57648603E-001       7.11  <-- SCF
     65  -3.42179007E+002                    3.26733907E-001       7.12  <-- SCF
     66  -3.41408774E+002                   -2.56744292E-001       7.13  <-- SCF
     67  -3.41969846E+002                    1.87023885E-001       7.14  <-- SCF
     68  -3.41199157E+002                   -2.56896456E-001       7.15  <-- SCF
     69  -3.42165402E+002                    3.22081656E-001       7.16  <-- SCF
     70  -3.41407907E+002                   -2.52498090E-001       7.17  <-- SCF
     71  -3.41965851E+002                    1.85981309E-001       7.18  <-- SCF
     72  -3.41199762E+002                   -2.55362998E-001       7.19  <-- SCF
     73  -3.42172598E+002                    3.24278441E-001       7.20  <-- SCF
     74  -3.41408571E+002                   -2.54675512E-001       7.22  <-- SCF
     75  -3.41965255E+002                    1.85561233E-001       7.23  <-- SCF
     76  -3.41199071E+002                   -2.55394656E-001       7.24  <-- SCF
     77  -3.42175956E+002                    3.25628349E-001       7.25  <-- SCF
     78  -3.41409177E+002                   -2.55592978E-001       7.26  <-- SCF
     79  -3.41965009E+002                    1.85277462E-001       7.27  <-- SCF
     80  -3.41198914E+002                   -2.55365011E-001       7.28  <-- SCF
     81  -3.42175515E+002                    3.25533516E-001       7.29  <-- SCF
     82  -3.41408871E+002                   -2.55547885E-001       7.30  <-- SCF
     83  -3.41966818E+002                    1.85982388E-001       7.31  <-- SCF
     84  -3.41199250E+002                   -2.55855960E-001       7.32  <-- SCF
     85  -3.42178425E+002                    3.26391510E-001       7.33  <-- SCF
     86  -3.41408528E+002                   -2.56632349E-001       7.34  <-- SCF
     87  -3.41965953E+002                    1.85808458E-001       7.36  <-- SCF
     88  -3.41199704E+002                   -2.55416450E-001       7.37  <-- SCF
     89  -3.42177679E+002                    3.25991783E-001       7.38  <-- SCF
     90  -3.41408174E+002                   -2.56501686E-001       7.39  <-- SCF
     91  -3.41968405E+002                    1.86743620E-001       7.40  <-- SCF
     92  -3.41200019E+002                   -2.56128570E-001       7.41  <-- SCF
     93  -3.42179418E+002                    3.26466233E-001       7.42  <-- SCF
     94  -3.41408606E+002                   -2.56937313E-001       7.43  <-- SCF
     95  -3.41967470E+002                    1.86288130E-001       7.44  <-- SCF
     96  -3.41199671E+002                   -2.55933144E-001       7.45  <-- SCF
     97  -3.42180805E+002                    3.27044503E-001       7.46  <-- SCF
     98  -3.41409006E+002                   -2.57266314E-001       7.47  <-- SCF
     99  -3.41967231E+002                    1.86074980E-001       7.49  <-- SCF
    100  -3.41199608E+002                   -2.55874028E-001       7.50  <-- SCF
    101  -3.42180279E+002                    3.26890273E-001       7.51  <-- SCF
    102  -3.41408864E+002                   -2.57138513E-001       7.52  <-- SCF
    103  -3.41967563E+002                    1.86233135E-001       7.53  <-- SCF
    104  -3.41199782E+002                   -2.55927125E-001       7.54  <-- SCF
    105  -3.42181477E+002                    3.27231624E-001       7.55  <-- SCF
    106  -3.41408653E+002                   -2.57608041E-001       7.56  <-- SCF
    107  -3.41968193E+002                    1.86513413E-001       7.57  <-- SCF
    108  -3.41200142E+002                   -2.56016791E-001       7.58  <-- SCF
    109  -3.42180082E+002                    3.26646662E-001       7.59  <-- SCF
    110  -3.41408374E+002                   -2.57236191E-001       7.60  <-- SCF
    111  -3.41968937E+002                    1.86854252E-001       7.62  <-- SCF
    112  -3.41200357E+002                   -2.56193295E-001       7.62  <-- SCF
    113  -3.42181365E+002                    3.27002877E-001       7.64  <-- SCF
    114  -3.41408633E+002                   -2.57577495E-001       7.65  <-- SCF
    115  -3.41969225E+002                    1.86864170E-001       7.66  <-- SCF
    116  -3.41200222E+002                   -2.56334362E-001       7.67  <-- SCF
    117  -3.42182557E+002                    3.27444807E-001       7.68  <-- SCF
    118  -3.41408875E+002                   -2.57893760E-001       7.69  <-- SCF
    119  -3.41968978E+002                    1.86700847E-001       7.70  <-- SCF
    120  -3.41200236E+002                   -2.56247390E-001       7.71  <-- SCF
    121  -3.42182665E+002                    3.27476407E-001       7.72  <-- SCF
    122  -3.41408771E+002                   -2.57964627E-001       7.73  <-- SCF
    123  -3.41968729E+002                    1.86652751E-001       7.75  <-- SCF
    124  -3.41200368E+002                   -2.56120561E-001       7.75  <-- SCF
    125  -3.42184047E+002                    3.27893028E-001       7.77  <-- SCF
    126  -3.41408625E+002                   -2.58473963E-001       7.78  <-- SCF
    127  -3.41968802E+002                    1.86725843E-001       7.79  <-- SCF
    128  -3.41200636E+002                   -2.56055428E-001       7.80  <-- SCF
    129  -3.42182961E+002                    3.27441620E-001       7.81  <-- SCF
    130  -3.41408382E+002                   -2.58192927E-001       7.82  <-- SCF
    131  -3.41969460E+002                    1.87025895E-001       7.83  <-- SCF
    132  -3.41200865E+002                   -2.56198364E-001       7.84  <-- SCF
    133  -3.42184070E+002                    3.27735004E-001       7.85  <-- SCF
    134  -3.41408533E+002                   -2.58512320E-001       7.86  <-- SCF
    135  -3.41969501E+002                    1.86989289E-001       7.87  <-- SCF
    136  -3.41200807E+002                   -2.56231323E-001       7.88  <-- SCF
    137  -3.42184917E+002                    3.28036653E-001       7.90  <-- SCF
    138  -3.41408677E+002                   -2.58746666E-001       7.91  <-- SCF
    139  -3.41969340E+002                    1.86887743E-001       7.92  <-- SCF
    140  -3.41200855E+002                   -2.56161483E-001       7.93  <-- SCF
    141  -3.42184958E+002                    3.28034007E-001       7.94  <-- SCF
    142  -3.41408569E+002                   -2.58796204E-001       7.95  <-- SCF
    143  -3.41969120E+002                    1.86850525E-001       7.96  <-- SCF
    144  -3.41200975E+002                   -2.56048495E-001       7.97  <-- SCF
    145  -3.42186061E+002                    3.28361876E-001       7.98  <-- SCF
    146  -3.41408444E+002                   -2.59205406E-001       7.99  <-- SCF
    147  -3.41969080E+002                    1.86878644E-001       8.00  <-- SCF
    148  -3.41201193E+002                   -2.55962507E-001       8.01  <-- SCF
    149  -3.42185289E+002                    3.28032227E-001       8.03  <-- SCF
    150  -3.41408236E+002                   -2.59017960E-001       8.04  <-- SCF
    151  -3.41969585E+002                    1.87116446E-001       8.05  <-- SCF
    152  -3.41201387E+002                   -2.56066119E-001       8.06  <-- SCF
    153  -3.42186121E+002                    3.28244728E-001       8.07  <-- SCF
    154  -3.41408336E+002                   -2.59261699E-001       8.08  <-- SCF
    155  -3.41969593E+002                    1.87085806E-001       8.10  <-- SCF
    156  -3.41201358E+002                   -2.56078466E-001       8.11  <-- SCF
    157  -3.42186706E+002                    3.28449282E-001       8.12  <-- SCF
    158  -3.41408423E+002                   -2.59427519E-001       8.13  <-- SCF
    159  -3.41969487E+002                    1.87021372E-001       8.14  <-- SCF
    160  -3.41201404E+002                   -2.56027591E-001       8.15  <-- SCF
    161  -3.42186676E+002                    3.28423979E-001       8.17  <-- SCF
    162  -3.41408335E+002                   -2.59447182E-001       8.18  <-- SCF
    163  -3.41969443E+002                    1.87036047E-001       8.19  <-- SCF
    164  -3.41201506E+002                   -2.55979068E-001       8.20  <-- SCF
    165  -3.42187471E+002                    3.28655185E-001       8.21  <-- SCF
    166  -3.41408233E+002                   -2.59746002E-001       8.22  <-- SCF
    167  -3.41969489E+002                    1.87085224E-001       8.23  <-- SCF
    168  -3.41201682E+002                   -2.55935708E-001       8.24  <-- SCF
    169  -3.42186844E+002                    3.28387269E-001       8.25  <-- SCF
    170  -3.41408070E+002                   -2.59591219E-001       8.26  <-- SCF
    171  -3.41969931E+002                    1.87286958E-001       8.28  <-- SCF
    172  -3.41201835E+002                   -2.56031862E-001       8.29  <-- SCF
    173  -3.42187482E+002                    3.28548777E-001       8.30  <-- SCF
    174  -3.41399173E+002                   -2.62769552E-001       8.31  <-- SCF
    175  -3.42097897E+002                    2.32908152E-001       8.32  <-- SCF
    176  -3.41191660E+002                   -3.02079182E-001       8.33  <-- SCF
    177  -3.41955171E+002                    2.54503892E-001       8.34  <-- SCF
    178  -3.41380945E+002                   -1.91408824E-001       8.35  <-- SCF
    179  -3.42051594E+002                    2.23549612E-001       8.36  <-- SCF
    180  -3.41223270E+002                   -2.76107981E-001       8.37  <-- SCF
    181  -3.42136759E+002                    3.04496421E-001       8.38  <-- SCF
    182  -3.41395498E+002                   -2.47087147E-001       8.39  <-- SCF
    183  -3.42113881E+002                    2.39461064E-001       8.40  <-- SCF
    184  -3.41205870E+002                   -3.02670349E-001       8.41  <-- SCF
    185  -3.41633657E+002                    1.42595871E-001       8.43  <-- SCF
    186  -3.41302239E+002                   -1.10472652E-001       8.44  <-- SCF
    187  -3.41288039E+002                   -4.73351215E-003       8.45  <-- SCF
    188  -3.47413946E+002                    2.04196914E+000       8.46  <-- SCF
    189  -3.42362097E+002                   -1.68394993E+000       8.47  <-- SCF
    190  -3.44084309E+002                    5.74070685E-001       8.48  <-- SCF
    191  -3.41251092E+002                   -9.44405479E-001       8.49  <-- SCF
    192  -3.42440227E+002                    3.96378167E-001       8.51  <-- SCF
    193  -3.41433373E+002                   -3.35617861E-001       8.51  <-- SCF
    194  -3.42915530E+002                    4.94052162E-001       8.53  <-- SCF
    195  -3.41455395E+002                   -4.86711584E-001       8.54  <-- SCF
    196  -3.42351707E+002                    2.98770795E-001       8.55  <-- SCF
    197  -3.41206659E+002                   -3.81682873E-001       8.56  <-- SCF
    198  -3.43039776E+002                    6.11039064E-001       8.57  <-- SCF
    199  -3.41499823E+002                   -5.13317724E-001       8.58  <-- SCF
    200  -3.42560664E+002                    3.53613947E-001       8.59  <-- SCF
------------------------------------------------------------------------ <-- SCF
 *Warning* max. SCF cycles performed but system has not reached the groundstate.
  
Current total energy =  -342.5606644914     eV
(energy not corrected for finite basis set)
 
  ****************************************************************************
  WARNING: electronic minimisation did not converge when finding ground state.
  ****************************************************************************

Writing analysis data to ./castep-pymuonsuite-test-data/muon-airss-out-castep/castep/Si2_12/Si2_12.castep_bin

Writing model to ./castep-pymuonsuite-test-data/muon-airss-out-castep/castep/Si2_12/Si2_12.check
