 +-------------------------------------------------+
 |                                                 |
 |      CCC   AA    SSS  TTTTT  EEEEE  PPPP        |
 |     C     A  A  S       T    E      P   P       |
 |     C     AAAA   SS     T    EEE    PPPP        |
 |     C     A  A     S    T    E      P           |
 |      CCC  A  A  SSS     T    EEEEE  P           |
 |                                                 |
 +-------------------------------------------------+
 |                                                 |
 | Welcome to Academic Release CASTEP version 19.11|          
 | Ab Initio Total Energy Program                  |
 |                                                 |
 | Authors:                                        |
 | M. Segall, M. Probert, C. Pickard, P. Hasnip,   |
 | S. Clark, K. Refson, J. R. Yates, M. Payne      |
 |                                                 |
 | Contributors:                                   |
 | P. Lindan, P. Haynes, J. White, V. Milman,      |
 | N. Govind, M. Gibson, P. Tulip, V. Cocula,      |
 | B. Montanari, D. Quigley, M. Glover,            |
 | L. Bernasconi, A. Perlov, M. Plummer,           |
 | E. McNellis, J. Meyer, J. Gale, D. Jochym       |
 | J. Aarons, B. Walker, R. Gillen, D. Jones       |
 | T. Green, I. J. Bush, C. J. Armstrong,          |
 | E. J. Higgins, E. L. Brown, M. S. McFly,        |
 | J. Wilkins, B-C. Shih, P. J. P. Byrne           |
 |                                                 |
 | Copyright (c) 2000 - 2018                       |
 |                                                 |
 |     Distributed under the terms of an           |
 |     Agreement between the United Kingdom        |
 |     Car-Parrinello (UKCP) Consortium,           |
 |     Daresbury Laboratory and Accelrys, Inc.     |
 |                                                 |
 | Please cite                                     |
 |                                                 |
 |     "First principles methods using CASTEP"     |
 |                                                 |
 |         Zeitschrift fuer Kristallographie       |
 |           220(5-6) pp. 567-570 (2005)           |
 |                                                 |
 | S. J. Clark, M. D. Segall, C. J. Pickard,       |
 | P. J. Hasnip, M. J. Probert, K. Refson,         |
 | M. C. Payne                                     |
 |                                                 |
 |       in all publications arising from          |
 |              your use of CASTEP                 |
 |                                                 |
 +-------------------------------------------------+
 |                                                 |
 |              http://www.castep.org              |
 |                                                 |
 +-------------------------------------------------+
 
 
 
 Compiled for linux_x86_64_ifort18 on Fri, 05 Jul 2019 15:43:56 +0100
 from code version 
 0a9e5daac2f4+ Castep191_branch Wed, 03 Jul 2019 08:43:28 +0000
 Compiler: Intel Fortran 18.0.3.222; Optimisation: fast
 MATHLIBS: Intel MKL(2018.0.3) (LAPACK version 3.7.0)
 FFT Lib : default
 Fundamental constants values: CODATA 2014
 
 Run started: Tue, 17 Nov 2020 15:09:08 +0000
 
 Atomic calculation performed for Si: 1s2 2s2 2p6 3s2 3p2
 
 Converged in 55 iterations to an ae energy of -7859.183 eV
 
   ============================================================                
   | Pseudopotential Report - Date of generation 17-11-2020   |                
   ------------------------------------------------------------                
   | Element: Si Ionic charge:  4.00 Level of theory: LDA     |                
   | Atomic Solver: Koelling-Harmon                           |                
   |                                                          |                
   |               Reference Electronic Structure             |                
   |         Orbital         Occupation         Energy        |                
   |            3s              2.000           -0.400        |                
   |            3p              2.000           -0.153        |                
   |                                                          |                
   |                 Pseudopotential Definition               |                
   |        Beta     l      e      Rc     scheme   norm       |                
   |          1      0   -0.400   1.797     qc      0         |                
   |          2      0    0.250   1.797     qc      0         |                
   |          3      1   -0.153   1.797     qc      0         |                
   |          4      1    0.250   1.797     qc      0         |                
   |          5      2    0.000   1.797     qc      0         |                
   |          6      2    0.250   1.797     qc      0         |                
   |         loc     3    0.000   1.797     pn      0         |                
   |                                                          |                
   | Augmentation charge Rinner = 1.255                       |                
   | Partial core correction Rc = 1.255                       |                
   ------------------------------------------------------------                
   | "3|1.8|5|6|7|30:31:32"                                   |                
   ------------------------------------------------------------                
   |      Author: Chris J. Pickard, Cambridge University      |                
   ============================================================                
 
 Atomic calculation performed for H:mu: 1s1
 
 Converged in 41 iterations to an ae energy of -12.134 eV
 
   ============================================================                
   | Pseudopotential Report - Date of generation 17-11-2020   |                
   ------------------------------------------------------------                
   | Element: H Ionic charge:  1.00 Level of theory: LDA      |                
   | Atomic Solver: Koelling-Harmon                           |                
   |                                                          |                
   |               Reference Electronic Structure             |                
   |         Orbital         Occupation         Energy        |                
   |            1s              1.000           -0.234        |                
   |                                                          |                
   |                 Pseudopotential Definition               |                
   |        Beta     l      e      Rc     scheme   norm       |                
   |          1      0   -0.234   0.599     qc      0         |                
   |          2      0    0.250   0.599     qc      0         |                
   |         loc     1    0.000   0.599     pn      0         |                
   |                                                          |                
   | Augmentation charge Rinner = 0.421                       |                
   | No partial core correction                               |                
   ------------------------------------------------------------                
   | "1|0.6|13|15|17|10(qc=8)"                                |                
   ------------------------------------------------------------                
   |      Author: Chris J. Pickard, Cambridge University      |                
   ============================================================                
 
 Pseudo atomic calculation performed for Si 3s2 3p2
 
 Converged in 21 iterations to a total energy of -162.9266 eV
 
 Pseudo atomic calculation performed for H:mu 1s1
 
 Converged in 18 iterations to a total energy of -11.6786 eV
 Calculation parallelised over 8 processes.
 Data is distributed by G-vector(8-way)

 ************************************ Title ************************************
 

 ***************************** General Parameters ******************************
  
 output verbosity                               : normal  (1)
 write checkpoint data to                       : ./castep-pymuonsuite-test-data/muon-airss-out-castep/castep/Si2_21/Si2_21.check
 type of calculation                            : geometry optimization
 stress calculation                             : off
 density difference calculation                 : off
 electron localisation func (ELF) calculation   : off
 Hirshfeld analysis                             : off
 unlimited duration calculation
 timing information                             : on
 memory usage estimate                          : on
 write extra output files                       : on
 write final potential to formatted file        : off
 write final density to formatted file          : on
 write structure in CELL formatted file         : on
 write BibTeX reference list                    : on
 write OTFG pseudopotential files               : on
 write electrostatic potential file             : on
 write bands file                               : on
 checkpoint writing                             : both castep_bin and check files
  
 output         length unit                     : A
 output           mass unit                     : amu
 output           time unit                     : ps
 output         charge unit                     : e
 output           spin unit                     : hbar/2
 output         energy unit                     : eV
 output          force unit                     : eV/A
 output       velocity unit                     : A/ps
 output       pressure unit                     : GPa
 output     inv_length unit                     : 1/A
 output      frequency unit                     : cm-1
 output force constant unit                     : eV/A**2
 output         volume unit                     : A**3
 output   IR intensity unit                     : (D/A)**2/amu
 output         dipole unit                     : D
 output         efield unit                     : eV/A/e
 output        entropy unit                     : J/mol/K
  
 wavefunctions paging                           : none
 random number generator seed                   : randomised (150908348)
 data distribution                              : optimal for this architecture
 optimization strategy                          : maximize speed(+++)

 *********************** Exchange-Correlation Parameters ***********************
  
 using functional                               : Local Density Approximation
 relativistic treatment                         : Koelling-Harmon
 DFT+D: Semi-empirical dispersion correction    : off

 ************************* Pseudopotential Parameters **************************
  
 pseudopotential representation                 : reciprocal space
 <beta|phi> representation                      : reciprocal space
 spin-orbit coupling                            : off

 **************************** Basis Set Parameters *****************************
  
 plane wave basis set cut-off                   :   150.0000   eV
 size of standard grid                          :     2.0000
 size of   fine   gmax                          :    12.5491   1/A
 finite basis set correction                    : none

 **************************** Electronic Parameters ****************************
  
 number of  electrons                           :  8.000    
 net charge of system                           : +1.000    
 treating system as non-spin-polarized
 number of bands                                :          4

 ********************* Electronic Minimization Parameters **********************
  
 Method: Treating system as non-metallic,
         and number of  SD  steps               :          1
         and number of  CG  steps               :          4
  
 total energy / atom convergence tol.           : 0.1000E-07   eV
 eigen-energy convergence tolerance             : 0.7500E-08   eV
 max force / atom convergence tol.              : ignored
 convergence tolerance window                   :          3   cycles
 max. number of SCF cycles                      :        200
 periodic dipole correction                     : NONE

 ************************** Density Mixing Parameters **************************
  
 density-mixing scheme                          : Broyden
 max. length of mixing history                  :         20
 charge density mixing amplitude                : 0.8000    
 cut-off energy for mixing                      :  150.0       eV

 *********************** Population Analysis Parameters ************************
  
 Population analysis with cutoff                :  3.000       A
 Population analysis output                     : summary and pdos components

 ********************** Geometry Optimization Parameters ***********************
  
 optimization method                            : LBFGS
 max. no. of LBFGS updates                      : unbounded
 variable cell method                           : fixed basis quality
 max. number of steps                           :        300
 estimated bulk modulus                         :  500.0       GPa
 estimated <frequency>                          :  1668.       cm-1
 geom line minimiser                            : on
 with line minimiser tolerance                  :     0.4000
 total energy convergence tolerance             : 0.2000E-04   eV/atom
        max ionic |force| tolerance             : 0.5000E-01   eV/A
 max ionic |displacement| tolerance             : 0.1000E-02   A
   max |stress component| tolerance             : 0.1000       GPa
 convergence tolerance window                   :          2   steps
 backup results every                           :          5   steps
 write geom trajectory file                     : on

 *******************************************************************************
  
 
                           -------------------------------
                                      Unit Cell
                           -------------------------------
        Real Lattice(A)                      Reciprocal Lattice(1/A)
     2.6954640     2.6954640     0.0000000        1.165510893   1.165510893  -1.165510893
     2.6954640     0.0000000     2.6954640        1.165510893  -1.165510893   1.165510893
     0.0000000     2.6954640     2.6954640       -1.165510893   1.165510893   1.165510893
 
                       Lattice parameters(A)       Cell Angles
                    a =      3.811962          alpha =   60.000000
                    b =      3.811962          beta  =   60.000000
                    c =      3.811962          gamma =   60.000000
 
                       Current cell volume =            39.167928       A**3
                                   density =             1.459841   AMU/A**3
                                           =             2.424123     g/cm^3
 
                           -------------------------------
                                     Cell Contents
                           -------------------------------
                         Total number of ions in cell =    3
                      Total number of species in cell =    2
                        Max number of any one species =    2
 
            xxxxxxxxxxxxxxxxxxxxxxxxxxxxxxxxxxxxxxxxxxxxxxxxxxxxxxxxxxxx
            x  Element    Atom        Fractional coordinates of atoms  x
            x            Number           u          v          w      x
            x----------------------------------------------------------x
            x  Si           1         0.000000   0.000000   0.000000   x 
            x  Si           2         0.250000   0.250000   0.250000   x 
            x  H:mu         1         0.285456   0.496148   0.746594   x 
            xxxxxxxxxxxxxxxxxxxxxxxxxxxxxxxxxxxxxxxxxxxxxxxxxxxxxxxxxxxx
 
 
                         No user defined ionic velocities
 
                           -------------------------------
                                   Details of Species
                           -------------------------------
 
                               Mass of species in AMU
                                    Si   28.0855000
                                    H:mu    0.1134289
 
                          Electric Quadrupole Moment (Barn)
                                    Si    1.0000000 No Isotope Defined
                                    H:mu    0.0028600 Isotope  2
 
                          Files used for pseudopotentials:
                                    Si 3|1.8|5|6|7|30:31:32
                                    H:mu 1|0.6|13|15|17|10(qc=8)
 
                           -------------------------------
                              k-Points For BZ Sampling
                           -------------------------------
                       MP grid size for SCF calculation is  1  1  1
                            with an offset of   0.000  0.000  0.000
                       Number of kpoints used =             1
 
                           -------------------------------
                               Symmetry and Constraints
                           -------------------------------
 
                      Maximum deviation from symmetry =  0.00000         ANG
 
                      Number of symmetry operations   =           1
                      Number of ionic constraints     =           3
                      Point group of crystal =     1: C1, 1, 1
                      Space group of crystal =     1: P1, P 1
 
             Set iprint > 1 for details on symmetry rotations/translations
 
                         Centre of mass is constrained
             Set iprint > 1 for details of linear ionic constraints
 
                         Number of cell constraints= 6
                         Cell constraints are:  0 0 0 0 0 0
 
                         External pressure/stress (GPa)
                          0.00000   0.00000   0.00000
                                    0.00000   0.00000
                                              0.00000
  
+---------------- MEMORY AND SCRATCH DISK ESTIMATES PER PROCESS --------------+
|                                                     Memory          Disk    |
| Baseline code, static data and system overhead      464.0 MB         0.0 MB |
| BLAS internal memory storage                          0.0 MB         0.0 MB |
| Model and support data                               25.0 MB         0.0 MB |
| Electronic energy minimisation requirements           0.2 MB         0.0 MB |
| Force calculation requirements                        0.1 MB         0.0 MB |
|                                               ----------------------------- |
| Approx. total storage required per process          489.2 MB         0.0 MB |
|                                                                             |
| Requirements will fluctuate during execution and may exceed these estimates |
+-----------------------------------------------------------------------------+
Calculating total energy with cut-off of  150.000 eV.
------------------------------------------------------------------------ <-- SCF
SCF loop      Energy                           Energy gain       Timer   <-- SCF
                                               per atom          (sec)   <-- SCF
------------------------------------------------------------------------ <-- SCF
Initial  -7.55865896E+001                                          5.72  <-- SCF
      1  -3.08548323E+002                    7.76539112E+001       5.72  <-- SCF
      2  -3.40148479E+002                    1.05333852E+001       5.73  <-- SCF
      3  -3.40714767E+002                    1.88762840E-001       5.74  <-- SCF
      4  -3.39385129E+002                   -4.43212779E-001       5.75  <-- SCF
      5  -3.39492679E+002                    3.58499406E-002       5.76  <-- SCF
      6  -3.39248589E+002                   -8.13633444E-002       5.77  <-- SCF
      7  -3.39213992E+002                   -1.15321546E-002       5.78  <-- SCF
      8  -3.39209329E+002                   -1.55462989E-003       5.79  <-- SCF
      9  -3.39201338E+002                   -2.66350371E-003       5.80  <-- SCF
     10  -3.39201764E+002                    1.41918563E-004       5.81  <-- SCF
     11  -3.39200866E+002                   -2.99133172E-004       5.82  <-- SCF
     12  -3.39200666E+002                   -6.66521426E-005       5.83  <-- SCF
     13  -3.39200692E+002                    8.66915503E-006       5.84  <-- SCF
     14  -3.39200660E+002                   -1.09751700E-005       5.85  <-- SCF
     15  -3.39200656E+002                   -1.27382671E-006       5.86  <-- SCF
     16  -3.39200649E+002                   -2.25511228E-006       5.87  <-- SCF
     17  -3.39200646E+002                   -9.51985194E-007       5.88  <-- SCF
     18  -3.39200643E+002                   -9.69065426E-007       5.89  <-- SCF
     19  -3.39200644E+002                    1.75234332E-007       5.90  <-- SCF
     20  -3.39200645E+002                    2.73171338E-007       5.91  <-- SCF
     21  -3.39200644E+002                   -3.02281151E-007       5.92  <-- SCF
     22  -3.39200644E+002                    1.13805539E-007       5.93  <-- SCF
     23  -3.39200642E+002                   -5.03625590E-007       5.94  <-- SCF
     24  -3.39200653E+002                    3.42985236E-006       5.95  <-- SCF
     25  -3.39200641E+002                   -3.81837054E-006       5.96  <-- SCF
     26  -3.39201407E+002                    2.55380868E-004       5.97  <-- SCF
     27  -3.39200565E+002                   -2.80714261E-004       5.99  <-- SCF
     28  -3.39200654E+002                    2.97265263E-005       6.00  <-- SCF
     29  -3.39200669E+002                    4.89796119E-006       6.01  <-- SCF
     30  -3.39200731E+002                    2.04800378E-005       6.02  <-- SCF
     31  -3.39200685E+002                   -1.51529473E-005       6.04  <-- SCF
     32  -3.39200693E+002                    2.57938921E-006       6.05  <-- SCF
     33  -3.39200644E+002                   -1.62645871E-005       6.06  <-- SCF
     34  -3.39200647E+002                    1.02633705E-006       6.07  <-- SCF
     35  -3.39200649E+002                    5.46937690E-007       6.08  <-- SCF
     36  -3.39200644E+002                   -1.75716227E-006       6.10  <-- SCF
     37  -3.39200643E+002                   -2.54592639E-008       6.11  <-- SCF
     38  -3.39200643E+002                   -7.56190599E-008       6.12  <-- SCF
     39  -3.39200643E+002                    2.62497694E-008       6.13  <-- SCF
     40  -3.39200643E+002                   -3.01587288E-008       6.13  <-- SCF
     41  -3.39200643E+002                    5.03565765E-008       6.15  <-- SCF
     42  -3.39200643E+002                   -8.62308810E-008       6.15  <-- SCF
     43  -3.39200645E+002                    7.34371089E-007       6.17  <-- SCF
     44  -3.39200644E+002                   -5.19784758E-007       6.18  <-- SCF
     45  -3.39200854E+002                    6.99133944E-005       6.19  <-- SCF
     46  -3.39200611E+002                   -8.07485339E-005       6.20  <-- SCF
     47  -3.39200711E+002                    3.31624116E-005       6.21  <-- SCF
     48  -3.39200650E+002                   -2.00937464E-005       6.23  <-- SCF
     49  -3.39200644E+002                   -2.21375462E-006       6.24  <-- SCF
     50  -3.39200662E+002                    6.14116823E-006       6.25  <-- SCF
     51  -3.39200668E+002                    1.82756701E-006       6.26  <-- SCF
     52  -3.39200689E+002                    7.12745579E-006       6.27  <-- SCF
     53  -3.39200686E+002                   -8.83779455E-007       6.28  <-- SCF
     54  -3.39200661E+002                   -8.61672568E-006       6.29  <-- SCF
     55  -3.39200647E+002                   -4.54639350E-006       6.30  <-- SCF
     56  -3.39200662E+002                    5.11664575E-006       6.32  <-- SCF
     57  -3.39200646E+002                   -5.35184412E-006       6.33  <-- SCF
     58  -3.39200645E+002                   -5.86030506E-007       6.34  <-- SCF
     59  -3.39200644E+002                   -3.19258328E-007       6.35  <-- SCF
     60  -3.39200643E+002                   -2.00609086E-008       6.36  <-- SCF
     61  -3.39200645E+002                    5.88979700E-007       6.37  <-- SCF
     62  -3.39200643E+002                   -5.98594697E-007       6.38  <-- SCF
     63  -3.39200643E+002                   -6.28333247E-008       6.39  <-- SCF
     64  -3.39200643E+002                   -3.20244776E-008       6.40  <-- SCF
     65  -3.39200643E+002                    4.75333818E-008       6.42  <-- SCF
     66  -3.39200643E+002                    4.31225219E-008       6.43  <-- SCF
     67  -3.39200645E+002                    6.11850059E-007       6.44  <-- SCF
     68  -3.39200642E+002                   -1.00078525E-006       6.45  <-- SCF
     69  -3.39200643E+002                    1.07076785E-007       6.46  <-- SCF
     70  -3.39200646E+002                    1.26335692E-006       6.47  <-- SCF
     71  -3.39200645E+002                   -4.44699452E-007       6.48  <-- SCF
     72  -3.39200688E+002                    1.42738717E-005       6.49  <-- SCF
     73  -3.39200633E+002                   -1.84473049E-005       6.50  <-- SCF
     74  -3.39201661E+002                    3.42856011E-004       6.51  <-- SCF
     75  -3.39200720E+002                   -3.13618370E-004       6.53  <-- SCF
     76  -3.39201356E+002                    2.11910856E-004       6.54  <-- SCF
     77  -3.39200609E+002                   -2.49124279E-004       6.55  <-- SCF
     78  -3.39200873E+002                    8.82140440E-005       6.56  <-- SCF
     79  -3.39200672E+002                   -6.72317867E-005       6.57  <-- SCF
     80  -3.39200661E+002                   -3.67903050E-006       6.59  <-- SCF
     81  -3.39200643E+002                   -5.76855956E-006       6.60  <-- SCF
     82  -3.39200643E+002                   -1.74097620E-008       6.61  <-- SCF
     83  -3.39200643E+002                    8.98870856E-009       6.62  <-- SCF
     84  -3.39200643E+002                    7.32947206E-009       6.62  <-- SCF
     85  -3.39200643E+002                    1.05467915E-008       6.63  <-- SCF
     86  -3.39200643E+002                    7.33275738E-008       6.64  <-- SCF
     87  -3.39200643E+002                   -1.16223169E-007       6.65  <-- SCF
     88  -3.39200686E+002                    1.41818517E-005       6.66  <-- SCF
     89  -3.39200640E+002                   -1.51553920E-005       6.68  <-- SCF
     90  -3.39200645E+002                    1.44686455E-006       6.69  <-- SCF
     91  -3.39200645E+002                    1.80648268E-008       6.70  <-- SCF
     92  -3.39200670E+002                    8.57719981E-006       6.71  <-- SCF
     93  -3.39200642E+002                   -9.39150983E-006       6.72  <-- SCF
     94  -3.39200643E+002                    1.71281192E-007       6.73  <-- SCF
     95  -3.39200644E+002                    3.17901682E-007       6.74  <-- SCF
     96  -3.39200644E+002                    2.43372495E-007       6.76  <-- SCF
     97  -3.39200644E+002                   -9.37639491E-008       6.76  <-- SCF
     98  -3.39200655E+002                    3.67599631E-006       6.78  <-- SCF
     99  -3.39200644E+002                   -3.63964811E-006       6.79  <-- SCF
    100  -3.39200658E+002                    4.44739480E-006       6.80  <-- SCF
    101  -3.39200647E+002                   -3.53252215E-006       6.81  <-- SCF
    102  -3.39200647E+002                    5.50701396E-008       6.83  <-- SCF
    103  -3.39200650E+002                    1.08538148E-006       6.84  <-- SCF
    104  -3.39200649E+002                   -3.95460881E-007       6.85  <-- SCF
    105  -3.39200667E+002                    6.10419404E-006       6.86  <-- SCF
    106  -3.39200647E+002                   -6.65776932E-006       6.87  <-- SCF
    107  -3.39200711E+002                    2.10982909E-005       6.88  <-- SCF
    108  -3.39200637E+002                   -2.47553955E-005       6.89  <-- SCF
    109  -3.39200642E+002                    1.97310061E-006       6.90  <-- SCF
    110  -3.39200651E+002                    2.69624432E-006       6.92  <-- SCF
    111  -3.39200652E+002                    4.77089423E-007       6.92  <-- SCF
    112  -3.39200658E+002                    1.96375370E-006       6.94  <-- SCF
    113  -3.39200643E+002                   -4.96882887E-006       6.95  <-- SCF
    114  -3.39200645E+002                    5.71435400E-007       6.96  <-- SCF
    115  -3.39200645E+002                   -3.59144888E-011       6.97  <-- SCF
    116  -3.39200644E+002                   -2.40381442E-007       6.98  <-- SCF
    117  -3.39200644E+002                   -2.99473183E-008       6.99  <-- SCF
    118  -3.39200645E+002                    3.01344619E-007       7.01  <-- SCF
    119  -3.39200644E+002                   -3.17689176E-007       7.01  <-- SCF
    120  -3.39200656E+002                    3.95379978E-006       7.03  <-- SCF
    121  -3.39200643E+002                   -4.23011028E-006       7.04  <-- SCF
    122  -3.39200646E+002                    1.13922639E-006       7.05  <-- SCF
    123  -3.39200643E+002                   -1.03228593E-006       7.06  <-- SCF
    124  -3.39200644E+002                    2.80136783E-007       7.08  <-- SCF
    125  -3.39200643E+002                   -2.70434119E-007       7.09  <-- SCF
    126  -3.39200644E+002                    2.28805714E-007       7.10  <-- SCF
    127  -3.39200643E+002                   -2.72365413E-007       7.11  <-- SCF
    128  -3.39200643E+002                    3.55283235E-008       7.12  <-- SCF
    129  -3.39200643E+002                   -5.55015324E-008       7.13  <-- SCF
    130  -3.39200644E+002                    1.67289979E-007       7.14  <-- SCF
    131  -3.39200643E+002                   -1.65144938E-007       7.15  <-- SCF
    132  -3.39200647E+002                    1.34372173E-006       7.17  <-- SCF
    133  -3.39200643E+002                   -1.37798805E-006       7.18  <-- SCF
    134  -3.39200643E+002                   -7.98661376E-008       7.19  <-- SCF
    135  -3.39200661E+002                    6.20456734E-006       7.20  <-- SCF
    136  -3.39200644E+002                   -5.92264788E-006       7.21  <-- SCF
    137  -3.39200645E+002                    5.42703825E-007       7.22  <-- SCF
    138  -3.39200643E+002                   -6.02702032E-007       7.24  <-- SCF
    139  -3.39200644E+002                    1.32767841E-007       7.25  <-- SCF
    140  -3.39200643E+002                   -1.39064139E-007       7.26  <-- SCF
    141  -3.39200655E+002                    3.95937858E-006       7.27  <-- SCF
    142  -3.39200643E+002                   -4.24879093E-006       7.28  <-- SCF
    143  -3.39200643E+002                    5.72846731E-008       7.29  <-- SCF
    144  -3.39200645E+002                    7.67073560E-007       7.31  <-- SCF
    145  -3.39200644E+002                   -5.14262353E-007       7.32  <-- SCF
    146  -3.39200644E+002                    7.48275394E-008       7.33  <-- SCF
    147  -3.39200644E+002                    1.90162465E-008       7.34  <-- SCF
    148  -3.39200643E+002                   -1.83180924E-007       7.35  <-- SCF
    149  -3.39200646E+002                    8.17056796E-007       7.37  <-- SCF
    150  -3.39200643E+002                   -8.50365317E-007       7.38  <-- SCF
    151  -3.39200651E+002                    2.53686349E-006       7.39  <-- SCF
    152  -3.39200642E+002                   -3.00767954E-006       7.40  <-- SCF
    153  -3.39200643E+002                    5.90984982E-007       7.42  <-- SCF
    154  -3.39200644E+002                    1.56685505E-007       7.43  <-- SCF
    155  -3.39200644E+002                    1.03685145E-007       7.43  <-- SCF
    156  -3.39200650E+002                    1.81947657E-006       7.45  <-- SCF
    157  -3.39200644E+002                   -1.75233515E-006       7.46  <-- SCF
    158  -3.39200679E+002                    1.15245163E-005       7.47  <-- SCF
    159  -3.39200642E+002                   -1.23431000E-005       7.48  <-- SCF
    160  -3.39200648E+002                    1.96962874E-006       7.50  <-- SCF
    161  -3.39200644E+002                   -1.42950087E-006       7.51  <-- SCF
    162  -3.39200801E+002                    5.23405747E-005       7.52  <-- SCF
    163  -3.39200621E+002                   -6.00024064E-005       7.53  <-- SCF
    164  -3.39200633E+002                    4.13576459E-006       7.54  <-- SCF
    165  -3.39200651E+002                    5.97673352E-006       7.55  <-- SCF
    166  -3.39200655E+002                    1.39430962E-006       7.57  <-- SCF
    167  -3.39200675E+002                    6.50802087E-006       7.58  <-- SCF
    168  -3.39200643E+002                   -1.07134885E-005       7.59  <-- SCF
    169  -3.39200644E+002                    4.53926141E-007       7.60  <-- SCF
    170  -3.39200651E+002                    2.52412878E-006       7.62  <-- SCF
    171  -3.39200644E+002                   -2.52585119E-006       7.63  <-- SCF
    172  -3.39200645E+002                    3.81320450E-007       7.64  <-- SCF
    173  -3.39200644E+002                   -2.57682703E-007       7.65  <-- SCF
    174  -3.39200643E+002                   -3.29849896E-007       7.66  <-- SCF
    175  -3.39200643E+002                    1.25739864E-008       7.67  <-- SCF
    176  -3.39200643E+002                   -2.14042620E-008       7.68  <-- SCF
    177  -3.39200644E+002                    1.04939832E-007       7.69  <-- SCF
    178  -3.39200644E+002                    2.43122737E-007       7.70  <-- SCF
    179  -3.39200643E+002                   -3.95997923E-007       7.72  <-- SCF
    180  -3.39200644E+002                    2.33599968E-007       7.73  <-- SCF
    181  -3.39200643E+002                   -1.87351790E-007       7.74  <-- SCF
    182  -3.39200643E+002                    6.22182025E-008       7.75  <-- SCF
    183  -3.39200645E+002                    5.85213254E-007       7.76  <-- SCF
    184  -3.39200643E+002                   -6.54832001E-007       7.78  <-- SCF
    185  -3.39200646E+002                    8.86226925E-007       7.79  <-- SCF
    186  -3.39200643E+002                   -9.78917242E-007       7.80  <-- SCF
    187  -3.39200697E+002                    1.79759330E-005       7.81  <-- SCF
    188  -3.39200641E+002                   -1.86142466E-005       7.82  <-- SCF
    189  -3.39200655E+002                    4.58339016E-006       7.83  <-- SCF
    190  -3.39200644E+002                   -3.62545903E-006       7.85  <-- SCF
    191  -3.39200650E+002                    2.08115915E-006       7.86  <-- SCF
    192  -3.39200643E+002                   -2.30468152E-006       7.87  <-- SCF
    193  -3.39200644E+002                    2.70204212E-007       7.88  <-- SCF
    194  -3.39200644E+002                    8.32853612E-009       7.89  <-- SCF
    195  -3.39200645E+002                    1.78011461E-007       7.90  <-- SCF
    196  -3.39200646E+002                    4.13980480E-007       7.91  <-- SCF
    197  -3.39200644E+002                   -6.17429647E-007       7.93  <-- SCF
    198  -3.39200643E+002                   -2.80415817E-007       7.94  <-- SCF
    199  -3.39200643E+002                    4.86542233E-009       7.95  <-- SCF
    200  -3.39200643E+002                    6.43436506E-009       7.96  <-- SCF
------------------------------------------------------------------------ <-- SCF
 *Warning* max. SCF cycles performed but system has not reached the groundstate.
  
Current total energy =  -339.2006432097     eV
(energy not corrected for finite basis set)
 
  ****************************************************************************
  Warning: electronic minimisation did not converge when finding ground state.
  ****************************************************************************
  Writing checkpoint file...

Writing analysis data to ./castep-pymuonsuite-test-data/muon-airss-out-castep/castep/Si2_21/Si2_21.castep_bin

Writing model to ./castep-pymuonsuite-test-data/muon-airss-out-castep/castep/Si2_21/Si2_21.check
  
Overall parallel efficiency rating: Terrible (27%)                              
  
Data was distributed by:-
G-vector (8-way); efficiency rating: Terrible (27%)                             
  
Parallel notes:
1) Calculation only took 8.0 s, so efficiency estimates may be inaccurate.      
