 +-------------------------------------------------+
 |                                                 |
 |      CCC   AA    SSS  TTTTT  EEEEE  PPPP        |
 |     C     A  A  S       T    E      P   P       |
 |     C     AAAA   SS     T    EEE    PPPP        |
 |     C     A  A     S    T    E      P           |
 |      CCC  A  A  SSS     T    EEEEE  P           |
 |                                                 |
 +-------------------------------------------------+
 |                                                 |
 | Welcome to Academic Release CASTEP version 19.11|
 | Ab Initio Total Energy Program                  |
 |                                                 |
 | Authors:                                        |
 | M. Segall, M. Probert, C. Pickard, P. Hasnip,   |
 | S. Clark, K. Refson, J. R. Yates, M. Payne      |
 |                                                 |
 | Contributors:                                   |
 | P. Lindan, P. Haynes, J. White, V. Milman,      |
 | N. Govind, M. Gibson, P. Tulip, V. Cocula,      |
 | B. Montanari, D. Quigley, M. Glover,            |
 | L. Bernasconi, A. Perlov, M. Plummer,           |
 | E. McNellis, J. Meyer, J. Gale, D. Jochym       |
 | J. Aarons, B. Walker, R. Gillen, D. Jones       |
 | T. Green, I. J. Bush, C. J. Armstrong,          |
 | E. J. Higgins, E. L. Brown, M. S. McFly,        |
 | J. Wilkins, B-C. Shih, P. J. P. Byrne           |
 |                                                 |
 | Copyright (c) 2000 - 2018                       |
 |                                                 |
 |     Distributed under the terms of an           |
 |     Agreement between the United Kingdom        |
 |     Car-Parrinello (UKCP) Consortium,           |
 |     Daresbury Laboratory and Accelrys, Inc.     |
 |                                                 |
 | Please cite                                     |
 |                                                 |
 |     "First principles methods using CASTEP"     |
 |                                                 |
 |         Zeitschrift fuer Kristallographie       |
 |           220(5-6) pp. 567-570 (2005)           |
 |                                                 |
 | S. J. Clark, M. D. Segall, C. J. Pickard,       |
 | P. J. Hasnip, M. J. Probert, K. Refson,         |
 | M. C. Payne                                     |
 |                                                 |
 |       in all publications arising from          |
 |              your use of CASTEP                 |
 |                                                 |
 +-------------------------------------------------+
 |                                                 |
 |              http://www.castep.org              |
 |                                                 |
 +-------------------------------------------------+



 Compiled for linux_x86_64_ifort18 on Fri, 05 Jul 2019 15:43:56 +0100
 from code version
 0a9e5daac2f4+ Castep191_branch Wed, 03 Jul 2019 08:43:28 +0000
 Compiler: Intel Fortran 18.0.3.222; Optimisation: fast
 MATHLIBS: Intel MKL(2018.0.3) (LAPACK version 3.7.0)
 FFT Lib : default
 Fundamental constants values: CODATA 2014

 Run started: Tue, 17 Nov 2020 15:09:43 +0000

 Atomic calculation performed for Si: 1s2 2s2 2p6 3s2 3p2

 Converged in 55 iterations to an ae energy of -7859.183 eV

   ============================================================
   | Pseudopotential Report - Date of generation 17-11-2020   |
   ------------------------------------------------------------
   | Element: Si Ionic charge:  4.00 Level of theory: LDA     |
   | Atomic Solver: Koelling-Harmon                           |
   |                                                          |
   |               Reference Electronic Structure             |
   |         Orbital         Occupation         Energy        |
   |            3s              2.000           -0.400        |
   |            3p              2.000           -0.153        |
   |                                                          |
   |                 Pseudopotential Definition               |
   |        Beta     l      e      Rc     scheme   norm       |
   |          1      0   -0.400   1.797     qc      0         |
   |          2      0    0.250   1.797     qc      0         |
   |          3      1   -0.153   1.797     qc      0         |
   |          4      1    0.250   1.797     qc      0         |
   |          5      2    0.000   1.797     qc      0         |
   |          6      2    0.250   1.797     qc      0         |
   |         loc     3    0.000   1.797     pn      0         |
   |                                                          |
   | Augmentation charge Rinner = 1.255                       |
   | Partial core correction Rc = 1.255                       |
   ------------------------------------------------------------
   | "3|1.8|5|6|7|30:31:32"                                   |
   ------------------------------------------------------------
   |      Author: Chris J. Pickard, Cambridge University      |
   ============================================================

 Atomic calculation performed for H:mu: 1s1

 Converged in 41 iterations to an ae energy of -12.134 eV

   ============================================================
   | Pseudopotential Report - Date of generation 17-11-2020   |
   ------------------------------------------------------------
   | Element: H Ionic charge:  1.00 Level of theory: LDA      |
   | Atomic Solver: Koelling-Harmon                           |
   |                                                          |
   |               Reference Electronic Structure             |
   |         Orbital         Occupation         Energy        |
   |            1s              1.000           -0.234        |
   |                                                          |
   |                 Pseudopotential Definition               |
   |        Beta     l      e      Rc     scheme   norm       |
   |          1      0   -0.234   0.599     qc      0         |
   |          2      0    0.250   0.599     qc      0         |
   |         loc     1    0.000   0.599     pn      0         |
   |                                                          |
   | Augmentation charge Rinner = 0.421                       |
   | No partial core correction                               |
   ------------------------------------------------------------
   | "1|0.6|13|15|17|10(qc=8)"                                |
   ------------------------------------------------------------
   |      Author: Chris J. Pickard, Cambridge University      |
   ============================================================

 Pseudo atomic calculation performed for Si 3s2 3p2

 Converged in 21 iterations to a total energy of -162.9266 eV

 Pseudo atomic calculation performed for H:mu 1s1

 Converged in 18 iterations to a total energy of -11.6786 eV
 Calculation parallelised over 8 processes.
 Data is distributed by G-vector(8-way)

 ************************************ Title ************************************


 ***************************** General Parameters ******************************

 output verbosity                               : normal  (1)
 write checkpoint data to                       : ./castep-pymuonsuite-test-data/muon-airss-out-castep/castep/Si2_3/Si2_3.check
 type of calculation                            : geometry optimization
 stress calculation                             : off
 density difference calculation                 : off
 electron localisation func (ELF) calculation   : off
 Hirshfeld analysis                             : off
 unlimited duration calculation
 timing information                             : on
 memory usage estimate                          : on
 write extra output files                       : on
 write final potential to formatted file        : off
 write final density to formatted file          : on
 write structure in CELL formatted file         : on
 write BibTeX reference list                    : on
 write OTFG pseudopotential files               : on
 write electrostatic potential file             : on
 write bands file                               : on
 checkpoint writing                             : both castep_bin and check files

 output         length unit                     : A
 output           mass unit                     : amu
 output           time unit                     : ps
 output         charge unit                     : e
 output           spin unit                     : hbar/2
 output         energy unit                     : eV
 output          force unit                     : eV/A
 output       velocity unit                     : A/ps
 output       pressure unit                     : GPa
 output     inv_length unit                     : 1/A
 output      frequency unit                     : cm-1
 output force constant unit                     : eV/A**2
 output         volume unit                     : A**3
 output   IR intensity unit                     : (D/A)**2/amu
 output         dipole unit                     : D
 output         efield unit                     : eV/A/e
 output        entropy unit                     : J/mol/K

 wavefunctions paging                           : none
 random number generator seed                   : randomised (150943253)
 data distribution                              : optimal for this architecture
 optimization strategy                          : maximize speed(+++)

 *********************** Exchange-Correlation Parameters ***********************

 using functional                               : Local Density Approximation
 relativistic treatment                         : Koelling-Harmon
 DFT+D: Semi-empirical dispersion correction    : off

 ************************* Pseudopotential Parameters **************************

 pseudopotential representation                 : reciprocal space
 <beta|phi> representation                      : reciprocal space
 spin-orbit coupling                            : off

 **************************** Basis Set Parameters *****************************

 plane wave basis set cut-off                   :   150.0000   eV
 size of standard grid                          :     2.0000
 size of   fine   gmax                          :    12.5491   1/A
 finite basis set correction                    : none

 **************************** Electronic Parameters ****************************

 number of  electrons                           :  8.000
 net charge of system                           : +1.000
 treating system as non-spin-polarized
 number of bands                                :          4

 ********************* Electronic Minimization Parameters **********************

 Method: Treating system as non-metallic,
         and number of  SD  steps               :          1
         and number of  CG  steps               :          4

 total energy / atom convergence tol.           : 0.1000E-07   eV
 eigen-energy convergence tolerance             : 0.7500E-08   eV
 max force / atom convergence tol.              : ignored
 convergence tolerance window                   :          3   cycles
 max. number of SCF cycles                      :        200
 periodic dipole correction                     : NONE

 ************************** Density Mixing Parameters **************************

 density-mixing scheme                          : Broyden
 max. length of mixing history                  :         20
 charge density mixing amplitude                : 0.8000
 cut-off energy for mixing                      :  150.0       eV

 *********************** Population Analysis Parameters ************************

 Population analysis with cutoff                :  3.000       A
 Population analysis output                     : summary and pdos components

 ********************** Geometry Optimization Parameters ***********************

 optimization method                            : LBFGS
 max. no. of LBFGS updates                      : unbounded
 variable cell method                           : fixed basis quality
 max. number of steps                           :        300
 estimated bulk modulus                         :  500.0       GPa
 estimated <frequency>                          :  1668.       cm-1
 geom line minimiser                            : on
 with line minimiser tolerance                  :     0.4000
 total energy convergence tolerance             : 0.2000E-04   eV/atom
        max ionic |force| tolerance             : 0.5000E-01   eV/A
 max ionic |displacement| tolerance             : 0.1000E-02   A
   max |stress component| tolerance             : 0.1000       GPa
 convergence tolerance window                   :          2   steps
 backup results every                           :          5   steps
 write geom trajectory file                     : on

 *******************************************************************************


                           -------------------------------
                                      Unit Cell
                           -------------------------------
        Real Lattice(A)                      Reciprocal Lattice(1/A)
     2.6954640     2.6954640     0.0000000        1.165510893   1.165510893  -1.165510893
     2.6954640     0.0000000     2.6954640        1.165510893  -1.165510893   1.165510893
     0.0000000     2.6954640     2.6954640       -1.165510893   1.165510893   1.165510893

                       Lattice parameters(A)       Cell Angles
                    a =      3.811962          alpha =   60.000000
                    b =      3.811962          beta  =   60.000000
                    c =      3.811962          gamma =   60.000000

                       Current cell volume =            39.167928       A**3
                                   density =             1.459841   AMU/A**3
                                           =             2.424123     g/cm^3

                           -------------------------------
                                     Cell Contents
                           -------------------------------
                         Total number of ions in cell =    3
                      Total number of species in cell =    2
                        Max number of any one species =    2

            xxxxxxxxxxxxxxxxxxxxxxxxxxxxxxxxxxxxxxxxxxxxxxxxxxxxxxxxxxxx
            x  Element    Atom        Fractional coordinates of atoms  x
            x            Number           u          v          w      x
            x----------------------------------------------------------x
            x  Si           1         0.000000   0.000000   0.000000   x
            x  Si           2         0.250000   0.250000   0.250000   x
            x  H:mu         1         0.890867   0.981786   0.266501   x
            xxxxxxxxxxxxxxxxxxxxxxxxxxxxxxxxxxxxxxxxxxxxxxxxxxxxxxxxxxxx


                         No user defined ionic velocities

                           -------------------------------
                                   Details of Species
                           -------------------------------

                               Mass of species in AMU
                                    Si   28.0855000
                                    H:mu    0.1134289

                          Electric Quadrupole Moment (Barn)
                                    Si    1.0000000 No Isotope Defined
                                    H:mu    0.0028600 Isotope  2

                          Files used for pseudopotentials:
                                    Si 3|1.8|5|6|7|30:31:32
                                    H:mu 1|0.6|13|15|17|10(qc=8)

                           -------------------------------
                              k-Points For BZ Sampling
                           -------------------------------
                       MP grid size for SCF calculation is  1  1  1
                            with an offset of   0.000  0.000  0.000
                       Number of kpoints used =             1

                           -------------------------------
                               Symmetry and Constraints
                           -------------------------------

                      Maximum deviation from symmetry =  0.00000         ANG

                      Number of symmetry operations   =           1
                      Number of ionic constraints     =           3
                      Point group of crystal =     1: C1, 1, 1
                      Space group of crystal =     1: P1, P 1

             Set iprint > 1 for details on symmetry rotations/translations

                         Centre of mass is constrained
             Set iprint > 1 for details of linear ionic constraints

                         Number of cell constraints= 6
                         Cell constraints are:  0 0 0 0 0 0

                         External pressure/stress (GPa)
                          0.00000   0.00000   0.00000
                                    0.00000   0.00000
                                              0.00000

+---------------- MEMORY AND SCRATCH DISK ESTIMATES PER PROCESS --------------+
|                                                     Memory          Disk    |
| Baseline code, static data and system overhead      464.0 MB         0.0 MB |
| BLAS internal memory storage                          0.0 MB         0.0 MB |
| Model and support data                               25.0 MB         0.0 MB |
| Electronic energy minimisation requirements           0.2 MB         0.0 MB |
| Force calculation requirements                        0.1 MB         0.0 MB |
|                                               ----------------------------- |
| Approx. total storage required per process          489.2 MB         0.0 MB |
|                                                                             |
| Requirements will fluctuate during execution and may exceed these estimates |
+-----------------------------------------------------------------------------+
Calculating total energy with cut-off of  150.000 eV.
------------------------------------------------------------------------ <-- SCF
SCF loop      Energy                           Energy gain       Timer   <-- SCF
                                               per atom          (sec)   <-- SCF
------------------------------------------------------------------------ <-- SCF
Initial  -7.43411018E+001                                          5.72  <-- SCF
      1  -2.98747931E+002                    7.48022762E+001       5.73  <-- SCF
      2  -3.35393059E+002                    1.22150429E+001       5.73  <-- SCF
      3  -3.35572762E+002                    5.99009447E-002       5.74  <-- SCF
      4  -3.31702953E+002                   -1.28993643E+000       5.75  <-- SCF
      5  -3.30648963E+002                   -3.51330054E-001       5.76  <-- SCF
      6  -3.30486096E+002                   -5.42890451E-002       5.77  <-- SCF
      7  -3.30513835E+002                    9.24643095E-003       5.78  <-- SCF
      8  -3.30472897E+002                   -1.36459360E-002       5.79  <-- SCF
      9  -3.30475285E+002                    7.95871666E-004       5.79  <-- SCF
     10  -3.30474392E+002                   -2.97412524E-004       5.80  <-- SCF
     11  -3.30474179E+002                   -7.11291660E-005       5.81  <-- SCF
     12  -3.30474116E+002                   -2.10477934E-005       5.82  <-- SCF
     13  -3.30474102E+002                   -4.70463115E-006       5.83  <-- SCF
     14  -3.30474099E+002                   -9.81499460E-007       5.84  <-- SCF
     15  -3.30474097E+002                   -7.02255625E-007       5.85  <-- SCF
     16  -3.30474097E+002                    2.60703162E-007       5.86  <-- SCF
     17  -3.30474097E+002                   -2.05126175E-007       5.87  <-- SCF
     18  -3.30474098E+002                    2.32231270E-007       5.88  <-- SCF
     19  -3.30474097E+002                   -2.49026796E-007       5.89  <-- SCF
     20  -3.30474097E+002                    1.33507158E-009       5.90  <-- SCF
     21  -3.30474097E+002                   -1.80103347E-008       5.91  <-- SCF
     22  -3.30474097E+002                    4.43669936E-008       5.92  <-- SCF
     23  -3.30474097E+002                   -4.96670795E-008       5.93  <-- SCF
     24  -3.30474097E+002                    2.11678628E-007       5.94  <-- SCF
     25  -3.30474097E+002                   -2.19009099E-007       5.95  <-- SCF
     26  -3.30474097E+002                    3.17276393E-008       5.97  <-- SCF
     27  -3.30474097E+002                    9.77504090E-009       5.98  <-- SCF
     28  -3.30474098E+002                    3.44096202E-007       5.99  <-- SCF
     29  -3.30474097E+002                   -4.14009724E-007       6.00  <-- SCF
     30  -3.30474097E+002                    3.05030664E-008       6.01  <-- SCF
     31  -3.30474097E+002                    2.87122562E-010       6.02  <-- SCF
     32  -3.30474097E+002                    1.17971604E-009       6.02  <-- SCF
------------------------------------------------------------------------ <-- SCF

Final energy =  -330.4740967416     eV
(energy not corrected for finite basis set)


Writing analysis data to ./castep-pymuonsuite-test-data/muon-airss-out-castep/castep/Si2_3/Si2_3.castep_bin

Writing model to ./castep-pymuonsuite-test-data/muon-airss-out-castep/castep/Si2_3/Si2_3.check

+---------------- MEMORY AND SCRATCH DISK ESTIMATES PER PROCESS --------------+
|                                                     Memory          Disk    |
| Model and support data                               36.0 MB         0.0 MB |
| Electronic energy minimisation requirements           0.2 MB         0.0 MB |
| Geometry minimisation requirements                    0.2 MB         0.0 MB |
|                                               ----------------------------- |
| Approx. total storage required per process           36.3 MB         0.0 MB |
|                                                                             |
| Requirements will fluctuate during execution and may exceed these estimates |
+-----------------------------------------------------------------------------+


 ************************************** Forces **************************************
 *                                                                                  *
 *                           Cartesian components (eV/A)                            *
 * -------------------------------------------------------------------------------- *
 *                         x                    y                    z              *
 *                                                                                  *
 * Si              1     17.89307            -23.92574            -43.03938         *
 * Si              2      2.15324             -1.04605             -0.52527         *
 * H:mu            1    -20.04631             24.97180             43.56465         *
 *                                                                                  *
 ************************************************************************************
 LBFGS: finished iteration     0 with enthalpy= -3.30474097E+002 eV

 +-----------+-----------------+-----------------+------------+-----+ <-- LBFGS
 | Parameter |      value      |    tolerance    |    units   | OK? | <-- LBFGS
 +-----------+-----------------+-----------------+------------+-----+ <-- LBFGS
 |  dE/ion   |   0.000000E+000 |   2.000000E-005 |         eV | No  | <-- LBFGS
 |  |F|max   |   5.406777E+001 |   5.000000E-002 |       eV/A | No  | <-- LBFGS
 |  |dR|max  |   0.000000E+000 |   1.000000E-003 |          A | No  | <-- LBFGS
 +-----------+-----------------+-----------------+------------+-----+ <-- LBFGS


================================================================================
 Starting LBFGS iteration          1 ...
================================================================================

 +------------+-------------+-------------+-----------------+ <-- min LBFGS
 |    Step    |   lambda    |   F.delta'  |    enthalpy     | <-- min LBFGS
 +------------+-------------+-------------+-----------------+ <-- min LBFGS
 |  previous  |    0.000000 |    8.393533 |     -330.474097 | <-- min LBFGS
 +------------+-------------+-------------+-----------------+ <-- min LBFGS


--------------------------------------------------------------------------------
 LBFGS: starting iteration         1 with trial guess (lambda=  0.939157)
--------------------------------------------------------------------------------

                           -------------------------------
                                     Cell Contents
                           -------------------------------

            xxxxxxxxxxxxxxxxxxxxxxxxxxxxxxxxxxxxxxxxxxxxxxxxxxxxxxxxxxxxxxxxx
            x  Element         Atom        Fractional coordinates of atoms  x
            x                 Number           u          v          w      x
            x---------------------------------------------------------------x
            x  Si                1         0.033593  -0.001108  -0.077031   x
            x  Si                2         0.251482   0.252427   0.246619   x
            x  H:mu              1         0.855792   0.980466   0.346913   x
            xxxxxxxxxxxxxxxxxxxxxxxxxxxxxxxxxxxxxxxxxxxxxxxxxxxxxxxxxxxxxxxxx


------------------------------------------------------------------------ <-- SCF
SCF loop      Energy                           Energy gain       Timer   <-- SCF
                                               per atom          (sec)   <-- SCF
------------------------------------------------------------------------ <-- SCF
Initial  -3.33153795E+002                                          6.12  <-- SCF
      1  -3.40275322E+002                    2.37384216E+000       6.13  <-- SCF
      2  -3.40363481E+002                    2.93861974E-002       6.13  <-- SCF
      3  -3.39806918E+002                   -1.85520778E-001       6.14  <-- SCF
      4  -3.39737920E+002                   -2.29992699E-002       6.15  <-- SCF
      5  -3.39484032E+002                   -8.46295319E-002       6.16  <-- SCF
      6  -3.39456226E+002                   -9.26850318E-003       6.17  <-- SCF
      7  -3.39424987E+002                   -1.04131753E-002       6.18  <-- SCF
      8  -3.39535503E+002                    3.68386794E-002       6.19  <-- SCF
      9  -3.39442681E+002                   -3.09407193E-002       6.20  <-- SCF
     10  -3.39536099E+002                    3.11394806E-002       6.21  <-- SCF
     11  -3.39466265E+002                   -2.32781572E-002       6.22  <-- SCF
     12  -3.39427926E+002                   -1.27796958E-002       6.23  <-- SCF
     13  -3.39417390E+002                   -3.51192255E-003       6.24  <-- SCF
     14  -3.39443829E+002                    8.81294322E-003       6.25  <-- SCF
     15  -3.39440733E+002                   -1.03193668E-003       6.26  <-- SCF
     16  -3.39427409E+002                   -4.44127328E-003       6.27  <-- SCF
     17  -3.39431149E+002                    1.24651950E-003       6.28  <-- SCF
     18  -3.39442549E+002                    3.80027636E-003       6.29  <-- SCF
     19  -3.39427471E+002                   -5.02600963E-003       6.30  <-- SCF
     20  -3.39576688E+002                    4.97389316E-002       6.31  <-- SCF
     21  -3.39404410E+002                   -5.74259329E-002       6.32  <-- SCF
     22  -3.39421072E+002                    5.55393146E-003       6.33  <-- SCF
     23  -3.39413879E+002                   -2.39755800E-003       6.34  <-- SCF
     24  -3.39458785E+002                    1.49686046E-002       6.36  <-- SCF
     25  -3.39459638E+002                    2.84320446E-004       6.37  <-- SCF
     26  -3.39457990E+002                   -5.49512672E-004       6.38  <-- SCF
     27  -3.39469030E+002                    3.68004246E-003       6.39  <-- SCF
     28  -3.39502707E+002                    1.12256947E-002       6.40  <-- SCF
     29  -3.39467500E+002                   -1.17356111E-002       6.42  <-- SCF
     30  -3.39423479E+002                   -1.46735792E-002       6.43  <-- SCF
     31  -3.39420393E+002                   -1.02872885E-003       6.44  <-- SCF
     32  -3.39418805E+002                   -5.29407986E-004       6.45  <-- SCF
     33  -3.39419060E+002                    8.51000850E-005       6.46  <-- SCF
     34  -3.39420137E+002                    3.58878977E-004       6.47  <-- SCF
     35  -3.39418640E+002                   -4.98899236E-004       6.49  <-- SCF
     36  -3.39427557E+002                    2.97224208E-003       6.50  <-- SCF
     37  -3.39468495E+002                    1.36459720E-002       6.51  <-- SCF
     38  -3.39410584E+002                   -1.93035240E-002       6.52  <-- SCF
     39  -3.39556805E+002                    4.87401939E-002       6.53  <-- SCF
     40  -3.39474757E+002                   -2.73491068E-002       6.54  <-- SCF
     41  -3.39439973E+002                   -1.15947799E-002       6.56  <-- SCF
     42  -3.39430477E+002                   -3.16536980E-003       6.57  <-- SCF
     43  -3.39416029E+002                   -4.81587667E-003       6.58  <-- SCF
     44  -3.39529005E+002                    3.76583747E-002       6.59  <-- SCF
     45  -3.39443789E+002                   -2.84052481E-002       6.60  <-- SCF
     46  -3.39626216E+002                    6.08090472E-002       6.62  <-- SCF
     47  -3.39381432E+002                   -8.15945124E-002       6.63  <-- SCF
     48  -3.39521036E+002                    4.65346832E-002       6.64  <-- SCF
     49  -3.39442097E+002                   -2.63130042E-002       6.65  <-- SCF
     50  -3.39481483E+002                    1.31286406E-002       6.66  <-- SCF
     51  -3.39447524E+002                   -1.13197634E-002       6.68  <-- SCF
     52  -3.39447639E+002                    3.82714493E-005       6.69  <-- SCF
     53  -3.39439529E+002                   -2.70330258E-003       6.70  <-- SCF
     54  -3.39432303E+002                   -2.40851786E-003       6.71  <-- SCF
     55  -3.39423754E+002                   -2.84978160E-003       6.72  <-- SCF
     56  -3.39420930E+002                   -9.41436946E-004       6.73  <-- SCF
     57  -3.39417708E+002                   -1.07398199E-003       6.75  <-- SCF
     58  -3.39421621E+002                    1.30449197E-003       6.76  <-- SCF
     59  -3.39434038E+002                    4.13900024E-003       6.77  <-- SCF
     60  -3.39450441E+002                    5.46747304E-003       6.78  <-- SCF
     61  -3.39459993E+002                    3.18416897E-003       6.79  <-- SCF
     62  -3.39665146E+002                    6.83843280E-002       6.81  <-- SCF
     63  -3.39687628E+002                    7.49377232E-003       6.82  <-- SCF
     64  -3.39514233E+002                   -5.77982400E-002       6.83  <-- SCF
     65  -3.39635196E+002                    4.03211953E-002       6.84  <-- SCF
     66  -3.39700881E+002                    2.18948291E-002       6.85  <-- SCF
     67  -3.39491297E+002                   -6.98611665E-002       6.86  <-- SCF
     68  -3.39469801E+002                   -7.16548070E-003       6.88  <-- SCF
     69  -3.39454964E+002                   -4.94560349E-003       6.89  <-- SCF
     70  -3.39459414E+002                    1.48332653E-003       6.90  <-- SCF
     71  -3.39487547E+002                    9.37767008E-003       6.91  <-- SCF
     72  -3.39444503E+002                   -1.43481729E-002       6.92  <-- SCF
     73  -3.39423767E+002                   -6.91191862E-003       6.93  <-- SCF
     74  -3.39421562E+002                   -7.35027849E-004       6.94  <-- SCF
     75  -3.39454893E+002                    1.11104188E-002       6.96  <-- SCF
     76  -3.39415598E+002                   -1.30982605E-002       6.97  <-- SCF
     77  -3.39412409E+002                   -1.06290779E-003       6.98  <-- SCF
     78  -3.39432681E+002                    6.75730403E-003       6.99  <-- SCF
     79  -3.39480981E+002                    1.60998814E-002       7.00  <-- SCF
     80  -3.39496163E+002                    5.06065844E-003       7.02  <-- SCF
     81  -3.39451299E+002                   -1.49545203E-002       7.03  <-- SCF
     82  -3.39425807E+002                   -8.49749726E-003       7.04  <-- SCF
     83  -3.39408230E+002                   -5.85890703E-003       7.05  <-- SCF
     84  -3.39420453E+002                    4.07427512E-003       7.06  <-- SCF
     85  -3.39419011E+002                   -4.80582579E-004       7.07  <-- SCF
     86  -3.39428171E+002                    3.05319917E-003       7.08  <-- SCF
     87  -3.39414771E+002                   -4.46669479E-003       7.09  <-- SCF
     88  -3.39425511E+002                    3.57996586E-003       7.11  <-- SCF
     89  -3.39425915E+002                    1.34855365E-004       7.12  <-- SCF
     90  -3.39463312E+002                    1.24656571E-002       7.13  <-- SCF
     91  -3.39444937E+002                   -6.12503607E-003       7.14  <-- SCF
     92  -3.39693467E+002                    8.28431669E-002       7.15  <-- SCF
     93  -3.39448051E+002                   -8.18051815E-002       7.17  <-- SCF
     94  -3.39425996E+002                   -7.35179991E-003       7.18  <-- SCF
     95  -3.39420326E+002                   -1.89007294E-003       7.19  <-- SCF
     96  -3.39448122E+002                    9.26549975E-003       7.20  <-- SCF
     97  -3.39436744E+002                   -3.79265545E-003       7.21  <-- SCF
     98  -3.39484000E+002                    1.57520000E-002       7.22  <-- SCF
     99  -3.39454318E+002                   -9.89404151E-003       7.23  <-- SCF
    100  -3.39443838E+002                   -3.49322152E-003       7.24  <-- SCF
    101  -3.39448943E+002                    1.70143410E-003       7.25  <-- SCF
    102  -3.39430094E+002                   -6.28268942E-003       7.27  <-- SCF
    103  -3.39436984E+002                    2.29637274E-003       7.28  <-- SCF
    104  -3.39445861E+002                    2.95916308E-003       7.29  <-- SCF
    105  -3.39431895E+002                   -4.65531405E-003       7.30  <-- SCF
    106  -3.39428774E+002                   -1.04031641E-003       7.31  <-- SCF
    107  -3.39738925E+002                    1.03383465E-001       7.33  <-- SCF
    108  -3.39418413E+002                   -1.06837302E-001       7.34  <-- SCF
    109  -3.39594485E+002                    5.86906329E-002       7.35  <-- SCF
    110  -3.39432211E+002                   -5.40912307E-002       7.36  <-- SCF
    111  -3.39588720E+002                    5.21698319E-002       7.37  <-- SCF
    112  -3.39477142E+002                   -3.71929216E-002       7.38  <-- SCF
    113  -3.39614394E+002                    4.57509145E-002       7.39  <-- SCF
    114  -3.39451135E+002                   -5.44196492E-002       7.41  <-- SCF
    115  -3.39540356E+002                    2.97400489E-002       7.42  <-- SCF
    116  -3.39431078E+002                   -3.64258860E-002       7.43  <-- SCF
    117  -3.39422517E+002                   -2.85379858E-003       7.44  <-- SCF
    118  -3.39429799E+002                    2.42745438E-003       7.45  <-- SCF
    119  -3.39435480E+002                    1.89381252E-003       7.46  <-- SCF
    120  -3.39492413E+002                    1.89775104E-002       7.47  <-- SCF
    121  -3.39430947E+002                   -2.04885738E-002       7.48  <-- SCF
    122  -3.39462029E+002                    1.03606858E-002       7.50  <-- SCF
    123  -3.39546452E+002                    2.81409177E-002       7.51  <-- SCF
    124  -3.39571012E+002                    8.18668675E-003       7.52  <-- SCF
    125  -3.39538867E+002                   -1.07149985E-002       7.53  <-- SCF
    126  -3.39746669E+002                    6.92672123E-002       7.55  <-- SCF
    127  -3.39653333E+002                   -3.11120317E-002       7.56  <-- SCF
    128  -3.39701275E+002                    1.59808261E-002       7.57  <-- SCF
    129  -3.39501871E+002                   -6.64678551E-002       7.58  <-- SCF
    130  -3.39479457E+002                   -7.47133565E-003       7.59  <-- SCF
    131  -3.39453155E+002                   -8.76732276E-003       7.60  <-- SCF
    132  -3.39444798E+002                   -2.78567056E-003       7.62  <-- SCF
    133  -3.39453832E+002                    3.01120280E-003       7.63  <-- SCF
    134  -3.39434979E+002                   -6.28425513E-003       7.64  <-- SCF
    135  -3.39443133E+002                    2.71781187E-003       7.65  <-- SCF
    136  -3.39424951E+002                   -6.06071266E-003       7.66  <-- SCF
    137  -3.39433668E+002                    2.90578694E-003       7.68  <-- SCF
    138  -3.39444555E+002                    3.62898058E-003       7.69  <-- SCF
    139  -3.39465399E+002                    6.94792173E-003       7.70  <-- SCF
    140  -3.39442349E+002                   -7.68307856E-003       7.71  <-- SCF
    141  -3.39481993E+002                    1.32144092E-002       7.72  <-- SCF
    142  -3.39584728E+002                    3.42449472E-002       7.73  <-- SCF
    143  -3.39809951E+002                    7.50744997E-002       7.74  <-- SCF
    144  -3.40651441E+002                    2.80496783E-001       7.75  <-- SCF
    145  -3.39786417E+002                   -2.88341458E-001       7.76  <-- SCF
    146  -3.39542900E+002                   -8.11724319E-002       7.77  <-- SCF
    147  -3.39537788E+002                   -1.70386598E-003       7.78  <-- SCF
    148  -3.39435456E+002                   -3.41108545E-002       7.79  <-- SCF
    149  -3.39545696E+002                    3.67468571E-002       7.81  <-- SCF
    150  -3.39444758E+002                   -3.36460557E-002       7.82  <-- SCF
    151  -3.39457235E+002                    4.15900307E-003       7.83  <-- SCF
    152  -3.39423906E+002                   -1.11096704E-002       7.84  <-- SCF
    153  -3.39441544E+002                    5.87944457E-003       7.85  <-- SCF
    154  -3.39417461E+002                   -8.02759196E-003       7.86  <-- SCF
    155  -3.39426622E+002                    3.05363799E-003       7.88  <-- SCF
    156  -3.39430225E+002                    1.20072297E-003       7.89  <-- SCF
    157  -3.39458632E+002                    9.46925199E-003       7.90  <-- SCF
    158  -3.39450888E+002                   -2.58127522E-003       7.91  <-- SCF
    159  -3.39700941E+002                    8.33507608E-002       7.92  <-- SCF
    160  -3.39579543E+002                   -4.04659237E-002       7.94  <-- SCF
    161  -3.39552363E+002                   -9.06008216E-003       7.95  <-- SCF
    162  -3.39346880E+002                   -6.84943898E-002       7.96  <-- SCF
    163  -3.40489151E+002                    3.80757240E-001       7.97  <-- SCF
    164  -3.39722483E+002                   -2.55556261E-001       7.98  <-- SCF
    165  -3.39567260E+002                   -5.17408016E-002       7.99  <-- SCF
    166  -3.39458091E+002                   -3.63897858E-002       8.00  <-- SCF
    167  -3.39454715E+002                   -1.12516626E-003       8.02  <-- SCF
    168  -3.39457821E+002                    1.03532656E-003       8.03  <-- SCF
    169  -3.39458043E+002                    7.38409694E-005       8.04  <-- SCF
    170  -3.39444187E+002                   -4.61867157E-003       8.05  <-- SCF
    171  -3.39429836E+002                   -4.78374142E-003       8.06  <-- SCF
    172  -3.39434037E+002                    1.40034710E-003       8.08  <-- SCF
    173  -3.39420304E+002                   -4.57753272E-003       8.10  <-- SCF
    174  -3.39463926E+002                    1.45406044E-002       8.11  <-- SCF
    175  -3.39458460E+002                   -1.82184273E-003       8.12  <-- SCF
    176  -3.39778484E+002                    1.06674462E-001       8.13  <-- SCF
    177  -3.39580463E+002                   -6.60070363E-002       8.14  <-- SCF
    178  -3.39634623E+002                    1.80535336E-002       8.16  <-- SCF
    179  -3.39449285E+002                   -6.17794870E-002       8.17  <-- SCF
    180  -3.39430163E+002                   -6.37399522E-003       8.18  <-- SCF
    181  -3.39457327E+002                    9.05461304E-003       8.19  <-- SCF
    182  -3.39466025E+002                    2.89962085E-003       8.20  <-- SCF
    183  -3.39524669E+002                    1.95479792E-002       8.21  <-- SCF
    184  -3.39499186E+002                   -8.49458797E-003       8.23  <-- SCF
    185  -3.39614324E+002                    3.83795744E-002       8.24  <-- SCF
    186  -3.39296741E+002                   -1.05861219E-001       8.25  <-- SCF
    187  -3.40039440E+002                    2.47566298E-001       8.26  <-- SCF
    188  -3.39495720E+002                   -1.81239845E-001       8.27  <-- SCF
    189  -3.39630079E+002                    4.47862602E-002       8.28  <-- SCF
    190  -3.39520658E+002                   -3.64737520E-002       8.30  <-- SCF
    191  -3.39620658E+002                    3.33336144E-002       8.30  <-- SCF
    192  -3.39572644E+002                   -1.60049280E-002       8.32  <-- SCF
    193  -3.39449063E+002                   -4.11936732E-002       8.33  <-- SCF
    194  -3.39439722E+002                   -3.11335975E-003       8.34  <-- SCF
    195  -3.39434401E+002                   -1.77373302E-003       8.35  <-- SCF
    196  -3.39431379E+002                   -1.00741166E-003       8.36  <-- SCF
    197  -3.39590691E+002                    5.31040582E-002       8.38  <-- SCF
    198  -3.39457177E+002                   -4.45048576E-002       8.39  <-- SCF
    199  -3.39895891E+002                    1.46238254E-001       8.40  <-- SCF
    200  -3.39441425E+002                   -1.51488846E-001       8.41  <-- SCF
------------------------------------------------------------------------ <-- SCF
 *Warning* max. SCF cycles performed but system has not reached the groundstate.

Current total energy =  -339.4414248711     eV
(energy not corrected for finite basis set)

  ****************************************************************************
  WARNING: electronic minimisation did not converge when finding ground state.
  ****************************************************************************

Writing analysis data to ./castep-pymuonsuite-test-data/muon-airss-out-castep/castep/Si2_3/Si2_3.castep_bin

Writing model to ./castep-pymuonsuite-test-data/muon-airss-out-castep/castep/Si2_3/Si2_3.check
