 +-------------------------------------------------+
 |                                                 |
 |      CCC   AA    SSS  TTTTT  EEEEE  PPPP        |
 |     C     A  A  S       T    E      P   P       |
 |     C     AAAA   SS     T    EEE    PPPP        |
 |     C     A  A     S    T    E      P           |
 |      CCC  A  A  SSS     T    EEEEE  P           |
 |                                                 |
 +-------------------------------------------------+
 |                                                 |
 | Welcome to Academic Release CASTEP version 19.11|          
 | Ab Initio Total Energy Program                  |
 |                                                 |
 | Authors:                                        |
 | M. Segall, M. Probert, C. Pickard, P. Hasnip,   |
 | S. Clark, K. Refson, J. R. Yates, M. Payne      |
 |                                                 |
 | Contributors:                                   |
 | P. Lindan, P. Haynes, J. White, V. Milman,      |
 | N. Govind, M. Gibson, P. Tulip, V. Cocula,      |
 | B. Montanari, D. Quigley, M. Glover,            |
 | L. Bernasconi, A. Perlov, M. Plummer,           |
 | E. McNellis, J. Meyer, J. Gale, D. Jochym       |
 | J. Aarons, B. Walker, R. Gillen, D. Jones       |
 | T. Green, I. J. Bush, C. J. Armstrong,          |
 | E. J. Higgins, E. L. Brown, M. S. McFly,        |
 | J. Wilkins, B-C. Shih, P. J. P. Byrne           |
 |                                                 |
 | Copyright (c) 2000 - 2018                       |
 |                                                 |
 |     Distributed under the terms of an           |
 |     Agreement between the United Kingdom        |
 |     Car-Parrinello (UKCP) Consortium,           |
 |     Daresbury Laboratory and Accelrys, Inc.     |
 |                                                 |
 | Please cite                                     |
 |                                                 |
 |     "First principles methods using CASTEP"     |
 |                                                 |
 |         Zeitschrift fuer Kristallographie       |
 |           220(5-6) pp. 567-570 (2005)           |
 |                                                 |
 | S. J. Clark, M. D. Segall, C. J. Pickard,       |
 | P. J. Hasnip, M. J. Probert, K. Refson,         |
 | M. C. Payne                                     |
 |                                                 |
 |       in all publications arising from          |
 |              your use of CASTEP                 |
 |                                                 |
 +-------------------------------------------------+
 |                                                 |
 |              http://www.castep.org              |
 |                                                 |
 +-------------------------------------------------+
 
 
 
 Compiled for linux_x86_64_ifort18 on Fri, 05 Jul 2019 15:43:56 +0100
 from code version 
 0a9e5daac2f4+ Castep191_branch Wed, 03 Jul 2019 08:43:28 +0000
 Compiler: Intel Fortran 18.0.3.222; Optimisation: fast
 MATHLIBS: Intel MKL(2018.0.3) (LAPACK version 3.7.0)
 FFT Lib : default
 Fundamental constants values: CODATA 2014
 
 Run started: Tue, 17 Nov 2020 15:09:34 +0000
 
 Atomic calculation performed for Si: 1s2 2s2 2p6 3s2 3p2
 
 Converged in 55 iterations to an ae energy of -7859.183 eV
 
   ============================================================                
   | Pseudopotential Report - Date of generation 17-11-2020   |                
   ------------------------------------------------------------                
   | Element: Si Ionic charge:  4.00 Level of theory: LDA     |                
   | Atomic Solver: Koelling-Harmon                           |                
   |                                                          |                
   |               Reference Electronic Structure             |                
   |         Orbital         Occupation         Energy        |                
   |            3s              2.000           -0.400        |                
   |            3p              2.000           -0.153        |                
   |                                                          |                
   |                 Pseudopotential Definition               |                
   |        Beta     l      e      Rc     scheme   norm       |                
   |          1      0   -0.400   1.797     qc      0         |                
   |          2      0    0.250   1.797     qc      0         |                
   |          3      1   -0.153   1.797     qc      0         |                
   |          4      1    0.250   1.797     qc      0         |                
   |          5      2    0.000   1.797     qc      0         |                
   |          6      2    0.250   1.797     qc      0         |                
   |         loc     3    0.000   1.797     pn      0         |                
   |                                                          |                
   | Augmentation charge Rinner = 1.255                       |                
   | Partial core correction Rc = 1.255                       |                
   ------------------------------------------------------------                
   | "3|1.8|5|6|7|30:31:32"                                   |                
   ------------------------------------------------------------                
   |      Author: Chris J. Pickard, Cambridge University      |                
   ============================================================                
 
 Atomic calculation performed for H:mu: 1s1
 
 Converged in 41 iterations to an ae energy of -12.134 eV
 
   ============================================================                
   | Pseudopotential Report - Date of generation 17-11-2020   |                
   ------------------------------------------------------------                
   | Element: H Ionic charge:  1.00 Level of theory: LDA      |                
   | Atomic Solver: Koelling-Harmon                           |                
   |                                                          |                
   |               Reference Electronic Structure             |                
   |         Orbital         Occupation         Energy        |                
   |            1s              1.000           -0.234        |                
   |                                                          |                
   |                 Pseudopotential Definition               |                
   |        Beta     l      e      Rc     scheme   norm       |                
   |          1      0   -0.234   0.599     qc      0         |                
   |          2      0    0.250   0.599     qc      0         |                
   |         loc     1    0.000   0.599     pn      0         |                
   |                                                          |                
   | Augmentation charge Rinner = 0.421                       |                
   | No partial core correction                               |                
   ------------------------------------------------------------                
   | "1|0.6|13|15|17|10(qc=8)"                                |                
   ------------------------------------------------------------                
   |      Author: Chris J. Pickard, Cambridge University      |                
   ============================================================                
 
 Pseudo atomic calculation performed for Si 3s2 3p2
 
 Converged in 21 iterations to a total energy of -162.9266 eV
 
 Pseudo atomic calculation performed for H:mu 1s1
 
 Converged in 18 iterations to a total energy of -11.6786 eV
 Calculation parallelised over 8 processes.
 Data is distributed by G-vector(8-way)

 ************************************ Title ************************************
 

 ***************************** General Parameters ******************************
  
 output verbosity                               : normal  (1)
 write checkpoint data to                       : ./castep-pymuonsuite-test-data/muon-airss-out-castep/castep/Si2_24/Si2_24.check
 type of calculation                            : geometry optimization
 stress calculation                             : off
 density difference calculation                 : off
 electron localisation func (ELF) calculation   : off
 Hirshfeld analysis                             : off
 unlimited duration calculation
 timing information                             : on
 memory usage estimate                          : on
 write extra output files                       : on
 write final potential to formatted file        : off
 write final density to formatted file          : on
 write structure in CELL formatted file         : on
 write BibTeX reference list                    : on
 write OTFG pseudopotential files               : on
 write electrostatic potential file             : on
 write bands file                               : on
 checkpoint writing                             : both castep_bin and check files
  
 output         length unit                     : A
 output           mass unit                     : amu
 output           time unit                     : ps
 output         charge unit                     : e
 output           spin unit                     : hbar/2
 output         energy unit                     : eV
 output          force unit                     : eV/A
 output       velocity unit                     : A/ps
 output       pressure unit                     : GPa
 output     inv_length unit                     : 1/A
 output      frequency unit                     : cm-1
 output force constant unit                     : eV/A**2
 output         volume unit                     : A**3
 output   IR intensity unit                     : (D/A)**2/amu
 output         dipole unit                     : D
 output         efield unit                     : eV/A/e
 output        entropy unit                     : J/mol/K
  
 wavefunctions paging                           : none
 random number generator seed                   : randomised (150934515)
 data distribution                              : optimal for this architecture
 optimization strategy                          : maximize speed(+++)

 *********************** Exchange-Correlation Parameters ***********************
  
 using functional                               : Local Density Approximation
 relativistic treatment                         : Koelling-Harmon
 DFT+D: Semi-empirical dispersion correction    : off

 ************************* Pseudopotential Parameters **************************
  
 pseudopotential representation                 : reciprocal space
 <beta|phi> representation                      : reciprocal space
 spin-orbit coupling                            : off

 **************************** Basis Set Parameters *****************************
  
 plane wave basis set cut-off                   :   150.0000   eV
 size of standard grid                          :     2.0000
 size of   fine   gmax                          :    12.5491   1/A
 finite basis set correction                    : none

 **************************** Electronic Parameters ****************************
  
 number of  electrons                           :  8.000    
 net charge of system                           : +1.000    
 treating system as non-spin-polarized
 number of bands                                :          4

 ********************* Electronic Minimization Parameters **********************
  
 Method: Treating system as non-metallic,
         and number of  SD  steps               :          1
         and number of  CG  steps               :          4
  
 total energy / atom convergence tol.           : 0.1000E-07   eV
 eigen-energy convergence tolerance             : 0.7500E-08   eV
 max force / atom convergence tol.              : ignored
 convergence tolerance window                   :          3   cycles
 max. number of SCF cycles                      :        200
 periodic dipole correction                     : NONE

 ************************** Density Mixing Parameters **************************
  
 density-mixing scheme                          : Broyden
 max. length of mixing history                  :         20
 charge density mixing amplitude                : 0.8000    
 cut-off energy for mixing                      :  150.0       eV

 *********************** Population Analysis Parameters ************************
  
 Population analysis with cutoff                :  3.000       A
 Population analysis output                     : summary and pdos components

 ********************** Geometry Optimization Parameters ***********************
  
 optimization method                            : LBFGS
 max. no. of LBFGS updates                      : unbounded
 variable cell method                           : fixed basis quality
 max. number of steps                           :        300
 estimated bulk modulus                         :  500.0       GPa
 estimated <frequency>                          :  1668.       cm-1
 geom line minimiser                            : on
 with line minimiser tolerance                  :     0.4000
 total energy convergence tolerance             : 0.2000E-04   eV/atom
        max ionic |force| tolerance             : 0.5000E-01   eV/A
 max ionic |displacement| tolerance             : 0.1000E-02   A
   max |stress component| tolerance             : 0.1000       GPa
 convergence tolerance window                   :          2   steps
 backup results every                           :          5   steps
 write geom trajectory file                     : on

 *******************************************************************************
  
 
                           -------------------------------
                                      Unit Cell
                           -------------------------------
        Real Lattice(A)                      Reciprocal Lattice(1/A)
     2.6954640     2.6954640     0.0000000        1.165510893   1.165510893  -1.165510893
     2.6954640     0.0000000     2.6954640        1.165510893  -1.165510893   1.165510893
     0.0000000     2.6954640     2.6954640       -1.165510893   1.165510893   1.165510893
 
                       Lattice parameters(A)       Cell Angles
                    a =      3.811962          alpha =   60.000000
                    b =      3.811962          beta  =   60.000000
                    c =      3.811962          gamma =   60.000000
 
                       Current cell volume =            39.167928       A**3
                                   density =             1.459841   AMU/A**3
                                           =             2.424123     g/cm^3
 
                           -------------------------------
                                     Cell Contents
                           -------------------------------
                         Total number of ions in cell =    3
                      Total number of species in cell =    2
                        Max number of any one species =    2
 
            xxxxxxxxxxxxxxxxxxxxxxxxxxxxxxxxxxxxxxxxxxxxxxxxxxxxxxxxxxxx
            x  Element    Atom        Fractional coordinates of atoms  x
            x            Number           u          v          w      x
            x----------------------------------------------------------x
            x  Si           1         0.000000   0.000000   0.000000   x 
            x  Si           2         0.250000   0.250000   0.250000   x 
            x  H:mu         1         0.913825   0.224616   0.688684   x 
            xxxxxxxxxxxxxxxxxxxxxxxxxxxxxxxxxxxxxxxxxxxxxxxxxxxxxxxxxxxx
 
 
                         No user defined ionic velocities
 
                           -------------------------------
                                   Details of Species
                           -------------------------------
 
                               Mass of species in AMU
                                    Si   28.0855000
                                    H:mu    0.1134289
 
                          Electric Quadrupole Moment (Barn)
                                    Si    1.0000000 No Isotope Defined
                                    H:mu    0.0028600 Isotope  2
 
                          Files used for pseudopotentials:
                                    Si 3|1.8|5|6|7|30:31:32
                                    H:mu 1|0.6|13|15|17|10(qc=8)
 
                           -------------------------------
                              k-Points For BZ Sampling
                           -------------------------------
                       MP grid size for SCF calculation is  1  1  1
                            with an offset of   0.000  0.000  0.000
                       Number of kpoints used =             1
 
                           -------------------------------
                               Symmetry and Constraints
                           -------------------------------
 
                      Maximum deviation from symmetry =  0.00000         ANG
 
                      Number of symmetry operations   =           1
                      Number of ionic constraints     =           3
                      Point group of crystal =     1: C1, 1, 1
                      Space group of crystal =     1: P1, P 1
 
             Set iprint > 1 for details on symmetry rotations/translations
 
                         Centre of mass is constrained
             Set iprint > 1 for details of linear ionic constraints
 
                         Number of cell constraints= 6
                         Cell constraints are:  0 0 0 0 0 0
 
                         External pressure/stress (GPa)
                          0.00000   0.00000   0.00000
                                    0.00000   0.00000
                                              0.00000
  
+---------------- MEMORY AND SCRATCH DISK ESTIMATES PER PROCESS --------------+
|                                                     Memory          Disk    |
| Baseline code, static data and system overhead      464.0 MB         0.0 MB |
| BLAS internal memory storage                          0.0 MB         0.0 MB |
| Model and support data                               25.0 MB         0.0 MB |
| Electronic energy minimisation requirements           0.2 MB         0.0 MB |
| Force calculation requirements                        0.1 MB         0.0 MB |
|                                               ----------------------------- |
| Approx. total storage required per process          489.2 MB         0.0 MB |
|                                                                             |
| Requirements will fluctuate during execution and may exceed these estimates |
+-----------------------------------------------------------------------------+
Calculating total energy with cut-off of  150.000 eV.
------------------------------------------------------------------------ <-- SCF
SCF loop      Energy                           Energy gain       Timer   <-- SCF
                                               per atom          (sec)   <-- SCF
------------------------------------------------------------------------ <-- SCF
Initial  -7.44576837E+001                                          5.70  <-- SCF
      1  -2.99607811E+002                    7.50500425E+001       5.70  <-- SCF
      2  -3.41134093E+002                    1.38420940E+001       5.71  <-- SCF
      3  -3.41933693E+002                    2.66533340E-001       5.72  <-- SCF
      4  -3.39604436E+002                   -7.76419259E-001       5.72  <-- SCF
      5  -3.39432088E+002                   -5.74492968E-002       5.73  <-- SCF
      6  -3.39419150E+002                   -4.31266572E-003       5.74  <-- SCF
      7  -3.39418847E+002                   -1.01073226E-004       5.75  <-- SCF
      8  -3.39418788E+002                   -1.95782990E-005       5.76  <-- SCF
      9  -3.39418897E+002                    3.64750426E-005       5.77  <-- SCF
     10  -3.39418884E+002                   -4.26404144E-006       5.78  <-- SCF
     11  -3.39418888E+002                    1.23807020E-006       5.79  <-- SCF
     12  -3.39418888E+002                   -7.43519665E-008       5.79  <-- SCF
     13  -3.39418888E+002                   -1.13597254E-008       5.80  <-- SCF
     14  -3.39418888E+002                    4.35991260E-009       5.81  <-- SCF
     15  -3.39418888E+002                    1.91092794E-009       5.81  <-- SCF
------------------------------------------------------------------------ <-- SCF
 
Final energy =  -339.4188879634     eV
(energy not corrected for finite basis set)
 

Writing analysis data to ./castep-pymuonsuite-test-data/muon-airss-out-castep/castep/Si2_24/Si2_24.castep_bin

Writing model to ./castep-pymuonsuite-test-data/muon-airss-out-castep/castep/Si2_24/Si2_24.check
 
+---------------- MEMORY AND SCRATCH DISK ESTIMATES PER PROCESS --------------+
|                                                     Memory          Disk    |
| Model and support data                               36.0 MB         0.0 MB |
| Electronic energy minimisation requirements           0.2 MB         0.0 MB |
| Geometry minimisation requirements                    0.2 MB         0.0 MB |
|                                               ----------------------------- |
| Approx. total storage required per process           36.3 MB         0.0 MB |
|                                                                             |
| Requirements will fluctuate during execution and may exceed these estimates |
+-----------------------------------------------------------------------------+
 
 
 ************************************** Forces **************************************
 *                                                                                  *
 *                           Cartesian components (eV/A)                            *
 * -------------------------------------------------------------------------------- *
 *                         x                    y                    z              *
 *                                                                                  *
 * Si              1     -7.58789             13.48725              6.15545         *
 * Si              2      4.88795             -3.24817             -4.62770         *
 * H:mu            1      2.69994            -10.23909             -1.52775         *
 *                                                                                  *
 ************************************************************************************
 LBFGS: finished iteration     0 with enthalpy= -3.39418888E+002 eV
  
 +-----------+-----------------+-----------------+------------+-----+ <-- LBFGS
 | Parameter |      value      |    tolerance    |    units   | OK? | <-- LBFGS
 +-----------+-----------------+-----------------+------------+-----+ <-- LBFGS
 |  dE/ion   |   0.000000E+000 |   2.000000E-005 |         eV | No  | <-- LBFGS
 |  |F|max   |   1.665448E+001 |   5.000000E-002 |       eV/A | No  | <-- LBFGS
 |  |dR|max  |   0.000000E+000 |   1.000000E-003 |          A | No  | <-- LBFGS
 +-----------+-----------------+-----------------+------------+-----+ <-- LBFGS
  

================================================================================
 Starting LBFGS iteration          1 ...
================================================================================
  
 +------------+-------------+-------------+-----------------+ <-- min LBFGS
 |    Step    |   lambda    |   F.delta'  |    enthalpy     | <-- min LBFGS
 +------------+-------------+-------------+-----------------+ <-- min LBFGS
 |  previous  |    0.000000 |    2.249692 |     -339.418888 | <-- min LBFGS
 +------------+-------------+-------------+-----------------+ <-- min LBFGS
  

--------------------------------------------------------------------------------
 LBFGS: starting iteration         1 with trial guess (lambda=  1.000000)
--------------------------------------------------------------------------------
 
                           -------------------------------
                                     Cell Contents
                           -------------------------------
 
            xxxxxxxxxxxxxxxxxxxxxxxxxxxxxxxxxxxxxxxxxxxxxxxxxxxxxxxxxxxxxxxxx
            x  Element         Atom        Fractional coordinates of atoms  x
            x                 Number           u          v          w      x
            x---------------------------------------------------------------x
            x  Si                1        -0.000248  -0.014421   0.026320   x
            x  Si                2         0.256058   0.253391   0.237663   x
            x  H:mu              1         0.908015   0.235646   0.674701   x
            xxxxxxxxxxxxxxxxxxxxxxxxxxxxxxxxxxxxxxxxxxxxxxxxxxxxxxxxxxxxxxxxx
 
 
------------------------------------------------------------------------ <-- SCF
SCF loop      Energy                           Energy gain       Timer   <-- SCF
                                               per atom          (sec)   <-- SCF
------------------------------------------------------------------------ <-- SCF
Initial  -3.39885978E+002                                          6.44  <-- SCF
      1  -3.41181080E+002                    4.31700620E-001       6.44  <-- SCF
      2  -3.41198941E+002                    5.95376334E-003       6.45  <-- SCF
      3  -3.41118460E+002                   -2.68269591E-002       6.46  <-- SCF
      4  -3.41085266E+002                   -1.10646493E-002       6.47  <-- SCF
      5  -3.41084938E+002                   -1.09513533E-004       6.47  <-- SCF
      6  -3.41084906E+002                   -1.05485192E-005       6.48  <-- SCF
      7  -3.41084904E+002                   -5.56855100E-007       6.49  <-- SCF
      8  -3.41084904E+002                    4.59164081E-008       6.50  <-- SCF
      9  -3.41084904E+002                   -5.93515527E-009       6.50  <-- SCF
     10  -3.41084904E+002                   -6.56257124E-010       6.51  <-- SCF
------------------------------------------------------------------------ <-- SCF
 
Final energy =  -341.0849043177     eV
(energy not corrected for finite basis set)
 
 
 ************************************** Forces **************************************
 *                                                                                  *
 *                           Cartesian components (eV/A)                            *
 * -------------------------------------------------------------------------------- *
 *                         x                    y                    z              *
 *                                                                                  *
 * Si              1     -4.53723              5.36742              4.29180         *
 * Si              2      3.32216             -2.05889             -3.32586         *
 * H:mu            1      1.21507             -3.30852             -0.96595         *
 *                                                                                  *
 ************************************************************************************
  
 +------------+-------------+-------------+-----------------+ <-- min LBFGS
 |    Step    |   lambda    |   F.delta'  |    enthalpy     | <-- min LBFGS
 +------------+-------------+-------------+-----------------+ <-- min LBFGS
 |  previous  |    0.000000 |    2.249692 |     -339.418888 | <-- min LBFGS
 | trial step |    1.000000 |    1.056210 |     -341.084904 | <-- min LBFGS
 +------------+-------------+-------------+-----------------+ <-- min LBFGS
  

--------------------------------------------------------------------------------
 LBFGS: improving iteration         1 with line minimization (lambda=  1.884982)
--------------------------------------------------------------------------------
 
                           -------------------------------
                                     Cell Contents
                           -------------------------------
 
            xxxxxxxxxxxxxxxxxxxxxxxxxxxxxxxxxxxxxxxxxxxxxxxxxxxxxxxxxxxxxxxxx
            x  Element         Atom        Fractional coordinates of atoms  x
            x                 Number           u          v          w      x
            x---------------------------------------------------------------x
            x  Si                1        -0.000467  -0.027183   0.049613   x
            x  Si                2         0.261419   0.256392   0.226745   x
            x  H:mu              1         0.902873   0.245407   0.662326   x
            xxxxxxxxxxxxxxxxxxxxxxxxxxxxxxxxxxxxxxxxxxxxxxxxxxxxxxxxxxxxxxxxx
 
 
------------------------------------------------------------------------ <-- SCF
SCF loop      Energy                           Energy gain       Timer   <-- SCF
                                               per atom          (sec)   <-- SCF
------------------------------------------------------------------------ <-- SCF
Initial  -3.41014369E+002                                          6.53  <-- SCF
      1  -3.41766319E+002                    2.50650250E-001       6.54  <-- SCF
      2  -3.41773071E+002                    2.25066004E-003       6.55  <-- SCF
      3  -3.41735427E+002                   -1.25479985E-002       6.56  <-- SCF
      4  -3.41726184E+002                   -3.08115279E-003       6.56  <-- SCF
      5  -3.41726385E+002                    6.68903789E-005       6.57  <-- SCF
      6  -3.41726374E+002                   -3.45030032E-006       6.58  <-- SCF
      7  -3.41726374E+002                   -4.56905126E-008       6.59  <-- SCF
      8  -3.41726374E+002                   -3.90171043E-008       6.59  <-- SCF
      9  -3.41726374E+002                   -5.55504818E-009       6.60  <-- SCF
     10  -3.41726374E+002                    3.17887535E-009       6.60  <-- SCF
------------------------------------------------------------------------ <-- SCF
 
Final energy =  -341.7263739108     eV
(energy not corrected for finite basis set)
 
 
 ************************************** Forces **************************************
 *                                                                                  *
 *                           Cartesian components (eV/A)                            *
 * -------------------------------------------------------------------------------- *
 *                         x                    y                    z              *
 *                                                                                  *
 * Si              1     -2.46768              1.05698              2.92923         *
 * Si              2      1.81886             -0.78798             -2.13111         *
 * H:mu            1      0.64882             -0.26900             -0.79813         *
 *                                                                                  *
 ************************************************************************************
  
 +------------+-------------+-------------+-----------------+ <-- min LBFGS
 |    Step    |   lambda    |   F.delta'  |    enthalpy     | <-- min LBFGS
 +------------+-------------+-------------+-----------------+ <-- min LBFGS
 |  previous  |    0.000000 |    2.249692 |     -339.418888 | <-- min LBFGS
 | trial step |    1.000000 |    1.056210 |     -341.084904 | <-- min LBFGS
 |  line step |    1.884982 |    0.392200 |     -341.726374 | <-- min LBFGS
 +------------+-------------+-------------+-----------------+ <-- min LBFGS
  
 LBFGS: finished iteration     1 with enthalpy= -3.41726374E+002 eV
  
 +-----------+-----------------+-----------------+------------+-----+ <-- LBFGS
 | Parameter |      value      |    tolerance    |    units   | OK? | <-- LBFGS
 +-----------+-----------------+-----------------+------------+-----+ <-- LBFGS
 |  dE/ion   |   7.691620E-001 |   2.000000E-005 |         eV | No  | <-- LBFGS
 |  |F|max   |   3.973293E+000 |   5.000000E-002 |       eV/A | No  | <-- LBFGS
 |  |dR|max  |   1.635810E-001 |   1.000000E-003 |          A | No  | <-- LBFGS
 +-----------+-----------------+-----------------+------------+-----+ <-- LBFGS
  

================================================================================
 Starting LBFGS iteration          2 ...
================================================================================
  
 +------------+-------------+-------------+-----------------+ <-- min LBFGS
 |    Step    |   lambda    |   F.delta'  |    enthalpy     | <-- min LBFGS
 +------------+-------------+-------------+-----------------+ <-- min LBFGS
 |  previous  |    0.000000 |    0.491857 |     -341.726374 | <-- min LBFGS
 +------------+-------------+-------------+-----------------+ <-- min LBFGS
  

--------------------------------------------------------------------------------
 LBFGS: starting iteration         2 with trial guess (lambda=  1.000000)
--------------------------------------------------------------------------------
 
                           -------------------------------
                                     Cell Contents
                           -------------------------------
 
            xxxxxxxxxxxxxxxxxxxxxxxxxxxxxxxxxxxxxxxxxxxxxxxxxxxxxxxxxxxxxxxxx
            x  Element         Atom        Fractional coordinates of atoms  x
            x                 Number           u          v          w      x
            x---------------------------------------------------------------x
            x  Si                1        -0.005603  -0.031131   0.063102   x
            x  Si                2         0.266486   0.257714   0.218417   x
            x  H:mu              1         0.902941   0.248034   0.657165   x
            xxxxxxxxxxxxxxxxxxxxxxxxxxxxxxxxxxxxxxxxxxxxxxxxxxxxxxxxxxxxxxxxx
 
 
------------------------------------------------------------------------ <-- SCF
SCF loop      Energy                           Energy gain       Timer   <-- SCF
                                               per atom          (sec)   <-- SCF
------------------------------------------------------------------------ <-- SCF
Initial  -3.41761110E+002                                          6.64  <-- SCF
      1  -3.41918286E+002                    5.23920244E-002       6.64  <-- SCF
      2  -3.41919896E+002                    5.36455485E-004       6.65  <-- SCF
      3  -3.41915715E+002                   -1.39353685E-003       6.66  <-- SCF
      4  -3.41915099E+002                   -2.05304378E-004       6.67  <-- SCF
      5  -3.41915134E+002                    1.16772408E-005       6.67  <-- SCF
      6  -3.41915151E+002                    5.76923847E-006       6.68  <-- SCF
      7  -3.41915152E+002                    5.01145363E-008       6.69  <-- SCF
      8  -3.41915152E+002                    7.74156222E-009       6.69  <-- SCF
      9  -3.41915152E+002                    1.75346168E-009       6.70  <-- SCF
------------------------------------------------------------------------ <-- SCF
 
Final energy =  -341.9151515634     eV
(energy not corrected for finite basis set)
 
 
 ************************************** Forces **************************************
 *                                                                                  *
 *                           Cartesian components (eV/A)                            *
 * -------------------------------------------------------------------------------- *
 *                         x                    y                    z              *
 *                                                                                  *
 * Si              1     -1.44701             -0.04438              1.97125         *
 * Si              2      0.87007             -0.41314             -1.13663         *
 * H:mu            1      0.57693              0.45752             -0.83462         *
 *                                                                                  *
 ************************************************************************************
  
 +------------+-------------+-------------+-----------------+ <-- min LBFGS
 |    Step    |   lambda    |   F.delta'  |    enthalpy     | <-- min LBFGS
 +------------+-------------+-------------+-----------------+ <-- min LBFGS
 |  previous  |    0.000000 |    0.491857 |     -341.726374 | <-- min LBFGS
 | trial step |    1.000000 |    0.251528 |     -341.915152 | <-- min LBFGS
 +------------+-------------+-------------+-----------------+ <-- min LBFGS
  

--------------------------------------------------------------------------------
 LBFGS: improving iteration         2 with line minimization (lambda=  2.046602)
--------------------------------------------------------------------------------
 
                           -------------------------------
                                     Cell Contents
                           -------------------------------
 
            xxxxxxxxxxxxxxxxxxxxxxxxxxxxxxxxxxxxxxxxxxxxxxxxxxxxxxxxxxxxxxxxx
            x  Element         Atom        Fractional coordinates of atoms  x
            x                 Number           u          v          w      x
            x---------------------------------------------------------------x
            x  Si                1        -0.010979  -0.035264   0.077221   x
            x  Si                2         0.271790   0.259097   0.209701   x
            x  H:mu              1         0.903014   0.250784   0.651763   x
            xxxxxxxxxxxxxxxxxxxxxxxxxxxxxxxxxxxxxxxxxxxxxxxxxxxxxxxxxxxxxxxxx
 
 
------------------------------------------------------------------------ <-- SCF
SCF loop      Energy                           Energy gain       Timer   <-- SCF
                                               per atom          (sec)   <-- SCF
------------------------------------------------------------------------ <-- SCF
Initial  -3.41880620E+002                                          6.72  <-- SCF
      1  -3.41994856E+002                    3.80787702E-002       6.73  <-- SCF
      2  -3.41996061E+002                    4.01704275E-004       6.74  <-- SCF
      3  -3.41991555E+002                   -1.50189921E-003       6.74  <-- SCF
      4  -3.41991152E+002                   -1.34366979E-004       6.75  <-- SCF
      5  -3.41991210E+002                    1.91453819E-005       6.76  <-- SCF
      6  -3.41991207E+002                   -7.97933096E-007       6.76  <-- SCF
      7  -3.41991208E+002                    3.81541093E-007       6.77  <-- SCF
      8  -3.41991208E+002                   -7.26398653E-008       6.78  <-- SCF
      9  -3.41991208E+002                    2.89813329E-010       6.78  <-- SCF
     10  -3.41991208E+002                    1.59578595E-009       6.79  <-- SCF
------------------------------------------------------------------------ <-- SCF
 
Final energy =  -341.9912081921     eV
(energy not corrected for finite basis set)
 
 
 ************************************** Forces **************************************
 *                                                                                  *
 *                           Cartesian components (eV/A)                            *
 * -------------------------------------------------------------------------------- *
 *                         x                    y                    z              *
 *                                                                                  *
 * Si              1     -0.50707             -0.87008              1.03694         *
 * Si              2     -0.01451             -0.11012             -0.17287         *
 * H:mu            1      0.52158              0.98020             -0.86407         *
 *                                                                                  *
 ************************************************************************************
  
 +------------+-------------+-------------+-----------------+ <-- min LBFGS
 |    Step    |   lambda    |   F.delta'  |    enthalpy     | <-- min LBFGS
 +------------+-------------+-------------+-----------------+ <-- min LBFGS
 |  previous  |    0.000000 |    0.491857 |     -341.726374 | <-- min LBFGS
 | trial step |    1.000000 |    0.251528 |     -341.915152 | <-- min LBFGS
 |  line step |    2.046602 |    0.038494 |     -341.991208 | <-- min LBFGS
 +------------+-------------+-------------+-----------------+ <-- min LBFGS
  
 LBFGS: finished iteration     2 with enthalpy= -3.41991208E+002 eV
  
 +-----------+-----------------+-----------------+------------+-----+ <-- LBFGS
 | Parameter |      value      |    tolerance    |    units   | OK? | <-- LBFGS
 +-----------+-----------------+-----------------+------------+-----+ <-- LBFGS
 |  dE/ion   |   8.827809E-002 |   2.000000E-005 |         eV | No  | <-- LBFGS
 |  |F|max   |   1.445478E+000 |   5.000000E-002 |       eV/A | No  | <-- LBFGS
 |  |dR|max  |   8.605425E-002 |   1.000000E-003 |          A | No  | <-- LBFGS
 +-----------+-----------------+-----------------+------------+-----+ <-- LBFGS
  

================================================================================
 Starting LBFGS iteration          3 ...
================================================================================
  
 +------------+-------------+-------------+-----------------+ <-- min LBFGS
 |    Step    |   lambda    |   F.delta'  |    enthalpy     | <-- min LBFGS
 +------------+-------------+-------------+-----------------+ <-- min LBFGS
 |  previous  |    0.000000 |    0.169983 |     -341.991208 | <-- min LBFGS
 +------------+-------------+-------------+-----------------+ <-- min LBFGS
  

--------------------------------------------------------------------------------
 LBFGS: starting iteration         3 with trial guess (lambda=  1.000000)
--------------------------------------------------------------------------------
 
                           -------------------------------
                                     Cell Contents
                           -------------------------------
 
            xxxxxxxxxxxxxxxxxxxxxxxxxxxxxxxxxxxxxxxxxxxxxxxxxxxxxxxxxxxxxxxxx
            x  Element         Atom        Fractional coordinates of atoms  x
            x                 Number           u          v          w      x
            x---------------------------------------------------------------x
            x  Si                1        -0.014339  -0.034444   0.080123   x
            x  Si                2         0.272663   0.259232   0.208066   x
            x  H:mu              1         0.905501   0.249829   0.650494   x
            xxxxxxxxxxxxxxxxxxxxxxxxxxxxxxxxxxxxxxxxxxxxxxxxxxxxxxxxxxxxxxxxx
 
 
------------------------------------------------------------------------ <-- SCF
SCF loop      Energy                           Energy gain       Timer   <-- SCF
                                               per atom          (sec)   <-- SCF
------------------------------------------------------------------------ <-- SCF
Initial  -3.42061376E+002                                          6.83  <-- SCF
      1  -3.42014433E+002                   -1.56477697E-002       6.83  <-- SCF
      2  -3.42014492E+002                    1.99109574E-005       6.84  <-- SCF
      3  -3.42014318E+002                   -5.79767995E-005       6.84  <-- SCF
      4  -3.42014317E+002                   -3.32488507E-007       6.85  <-- SCF
      5  -3.42014318E+002                    2.13941772E-007       6.86  <-- SCF
      6  -3.42014318E+002                    3.15374649E-008       6.86  <-- SCF
      7  -3.42014318E+002                    2.01180753E-009       6.87  <-- SCF
      8  -3.42014318E+002                    2.24525977E-010       6.87  <-- SCF
------------------------------------------------------------------------ <-- SCF
 
Final energy =  -342.0143180823     eV
(energy not corrected for finite basis set)
 
 
 ************************************** Forces **************************************
 *                                                                                  *
 *                           Cartesian components (eV/A)                            *
 * -------------------------------------------------------------------------------- *
 *                         x                    y                    z              *
 *                                                                                  *
 * Si              1     -0.31786             -0.76345              0.69967         *
 * Si              2     -0.15580             -0.22614              0.10472         *
 * H:mu            1      0.47367              0.98959             -0.80438         *
 *                                                                                  *
 ************************************************************************************
  
 +------------+-------------+-------------+-----------------+ <-- min LBFGS
 |    Step    |   lambda    |   F.delta'  |    enthalpy     | <-- min LBFGS
 +------------+-------------+-------------+-----------------+ <-- min LBFGS
 |  previous  |    0.000000 |    0.169983 |     -341.991208 | <-- min LBFGS
 | trial step |    1.000000 |    0.127446 |     -342.014318 | <-- min LBFGS
 +------------+-------------+-------------+-----------------+ <-- min LBFGS
  

--------------------------------------------------------------------------------
 LBFGS: improving iteration         3 with line minimization (lambda=  3.996127)
--------------------------------------------------------------------------------
 
                           -------------------------------
                                     Cell Contents
                           -------------------------------
 
            xxxxxxxxxxxxxxxxxxxxxxxxxxxxxxxxxxxxxxxxxxxxxxxxxxxxxxxxxxxxxxxxx
            x  Element         Atom        Fractional coordinates of atoms  x
            x                 Number           u          v          w      x
            x---------------------------------------------------------------x
            x  Si                1        -0.024406  -0.031987   0.088821   x
            x  Si                2         0.275277   0.259635   0.203170   x
            x  H:mu              1         0.912954   0.246968   0.646694   x
            xxxxxxxxxxxxxxxxxxxxxxxxxxxxxxxxxxxxxxxxxxxxxxxxxxxxxxxxxxxxxxxxx
 
 
------------------------------------------------------------------------ <-- SCF
SCF loop      Energy                           Energy gain       Timer   <-- SCF
                                               per atom          (sec)   <-- SCF
------------------------------------------------------------------------ <-- SCF
Initial  -3.42196793E+002                                          6.90  <-- SCF
      1  -3.42044488E+002                   -5.07686368E-002       6.90  <-- SCF
      2  -3.42044971E+002                    1.61199222E-004       6.91  <-- SCF
      3  -3.42043269E+002                   -5.67285931E-004       6.92  <-- SCF
      4  -3.42043265E+002                   -1.39279884E-006       6.92  <-- SCF
      5  -3.42043271E+002                    1.92521673E-006       6.93  <-- SCF
      6  -3.42043272E+002                    3.15438083E-007       6.94  <-- SCF
      7  -3.42043272E+002                    1.25542810E-009       6.94  <-- SCF
      8  -3.42043272E+002                    3.17002966E-009       6.95  <-- SCF
------------------------------------------------------------------------ <-- SCF
 
Final energy =  -342.0432718843     eV
(energy not corrected for finite basis set)
 
 
 ************************************** Forces **************************************
 *                                                                                  *
 *                           Cartesian components (eV/A)                            *
 * -------------------------------------------------------------------------------- *
 *                         x                    y                    z              *
 *                                                                                  *
 * Si              1      0.27333             -0.39210             -0.33498         *
 * Si              2     -0.59116             -0.62675              0.94612         *
 * H:mu            1      0.31783              1.01885             -0.61113         *
 *                                                                                  *
 ************************************************************************************
  
 +------------+-------------+-------------+-----------------+ <-- min LBFGS
 |    Step    |   lambda    |   F.delta'  |    enthalpy     | <-- min LBFGS
 +------------+-------------+-------------+-----------------+ <-- min LBFGS
 |  previous  |    0.000000 |    0.169983 |     -341.991208 | <-- min LBFGS
 | trial step |    1.000000 |    0.127446 |     -342.014318 | <-- min LBFGS
 |  line step |    3.996127 |   -0.003666 |     -342.043272 | <-- min LBFGS
 +------------+-------------+-------------+-----------------+ <-- min LBFGS
  
 LBFGS: finished iteration     3 with enthalpy= -3.42043272E+002 eV
  
 +-----------+-----------------+-----------------+------------+-----+ <-- LBFGS
 | Parameter |      value      |    tolerance    |    units   | OK? | <-- LBFGS
 +-----------+-----------------+-----------------+------------+-----+ <-- LBFGS
 |  dE/ion   |   1.735456E-002 |   2.000000E-005 |         eV | No  | <-- LBFGS
 |  |F|max   |   1.279619E+000 |   5.000000E-002 |       eV/A | No  | <-- LBFGS
 |  |dR|max  |   4.879513E-002 |   1.000000E-003 |          A | No  | <-- LBFGS
 +-----------+-----------------+-----------------+------------+-----+ <-- LBFGS
  

================================================================================
 Starting LBFGS iteration          4 ...
================================================================================
  
 +------------+-------------+-------------+-----------------+ <-- min LBFGS
 |    Step    |   lambda    |   F.delta'  |    enthalpy     | <-- min LBFGS
 +------------+-------------+-------------+-----------------+ <-- min LBFGS
 |  previous  |    0.000000 |    0.166427 |     -342.043272 | <-- min LBFGS
 +------------+-------------+-------------+-----------------+ <-- min LBFGS
  

--------------------------------------------------------------------------------
 LBFGS: starting iteration         4 with trial guess (lambda=  1.000000)
--------------------------------------------------------------------------------
 
                           -------------------------------
                                     Cell Contents
                           -------------------------------
 
            xxxxxxxxxxxxxxxxxxxxxxxxxxxxxxxxxxxxxxxxxxxxxxxxxxxxxxxxxxxxxxxxx
            x  Element         Atom        Fractional coordinates of atoms  x
            x                 Number           u          v          w      x
            x---------------------------------------------------------------x
            x  Si                1        -0.026545  -0.029310   0.086738   x
            x  Si                2         0.272752   0.260261   0.204717   x
            x  H:mu              1         0.917617   0.243665   0.647229   x
            xxxxxxxxxxxxxxxxxxxxxxxxxxxxxxxxxxxxxxxxxxxxxxxxxxxxxxxxxxxxxxxxx
 
 
------------------------------------------------------------------------ <-- SCF
SCF loop      Energy                           Energy gain       Timer   <-- SCF
                                               per atom          (sec)   <-- SCF
------------------------------------------------------------------------ <-- SCF
Initial  -3.42203918E+002                                          6.98  <-- SCF
      1  -3.42074063E+002                   -4.32850142E-002       6.99  <-- SCF
      2  -3.42074314E+002                    8.37279239E-005       6.99  <-- SCF
      3  -3.42073547E+002                   -2.55828452E-004       7.00  <-- SCF
      4  -3.42073521E+002                   -8.62273579E-006       7.01  <-- SCF
      5  -3.42073518E+002                   -1.00302898E-006       7.02  <-- SCF
      6  -3.42073518E+002                    6.54595294E-008       7.02  <-- SCF
      7  -3.42073518E+002                    3.16566320E-009       7.03  <-- SCF
      8  -3.42073518E+002                    1.41706746E-009       7.03  <-- SCF
------------------------------------------------------------------------ <-- SCF
 
Final energy =  -342.0735182139     eV
(energy not corrected for finite basis set)
 
 
 ************************************** Forces **************************************
 *                                                                                  *
 *                           Cartesian components (eV/A)                            *
 * -------------------------------------------------------------------------------- *
 *                         x                    y                    z              *
 *                                                                                  *
 * Si              1      0.14534             -0.07896             -0.31013         *
 * Si              2     -0.41309             -0.75396              0.81722         *
 * H:mu            1      0.26775              0.83292             -0.50710         *
 *                                                                                  *
 ************************************************************************************
  
 +------------+-------------+-------------+-----------------+ <-- min LBFGS
 |    Step    |   lambda    |   F.delta'  |    enthalpy     | <-- min LBFGS
 +------------+-------------+-------------+-----------------+ <-- min LBFGS
 |  previous  |    0.000000 |    0.166427 |     -342.043272 | <-- min LBFGS
 | trial step |    1.000000 |    0.124965 |     -342.073518 | <-- min LBFGS
 +------------+-------------+-------------+-----------------+ <-- min LBFGS
  

--------------------------------------------------------------------------------
 LBFGS: improving iteration         4 with line minimization (lambda=  4.013978)
--------------------------------------------------------------------------------
 
                           -------------------------------
                                     Cell Contents
                           -------------------------------
 
            xxxxxxxxxxxxxxxxxxxxxxxxxxxxxxxxxxxxxxxxxxxxxxxxxxxxxxxxxxxxxxxxx
            x  Element         Atom        Fractional coordinates of atoms  x
            x                 Number           u          v          w      x
            x---------------------------------------------------------------x
            x  Si                1        -0.032990  -0.021242   0.080460   x
            x  Si                2         0.265142   0.262148   0.209383   x
            x  H:mu              1         0.931673   0.233711   0.648842   x
            xxxxxxxxxxxxxxxxxxxxxxxxxxxxxxxxxxxxxxxxxxxxxxxxxxxxxxxxxxxxxxxxx
 
 
------------------------------------------------------------------------ <-- SCF
SCF loop      Energy                           Energy gain       Timer   <-- SCF
                                               per atom          (sec)   <-- SCF
------------------------------------------------------------------------ <-- SCF
Initial  -3.42497842E+002                                          7.06  <-- SCF
      1  -3.42115216E+002                   -1.27542005E-001       7.06  <-- SCF
      2  -3.42117384E+002                    7.22829351E-004       7.07  <-- SCF
      3  -3.42110500E+002                   -2.29472024E-003       7.08  <-- SCF
      4  -3.42110282E+002                   -7.27639086E-005       7.09  <-- SCF
      5  -3.42110260E+002                   -7.46123823E-006       7.09  <-- SCF
      6  -3.42110261E+002                    5.30973579E-007       7.10  <-- SCF
      7  -3.42110261E+002                    4.75699731E-008       7.11  <-- SCF
      8  -3.42110261E+002                    3.62929686E-009       7.11  <-- SCF
      9  -3.42110261E+002                    1.17259436E-009       7.12  <-- SCF
------------------------------------------------------------------------ <-- SCF
 
Final energy =  -342.1102612527     eV
(energy not corrected for finite basis set)
 
 
 ************************************** Forces **************************************
 *                                                                                  *
 *                           Cartesian components (eV/A)                            *
 * -------------------------------------------------------------------------------- *
 *                         x                    y                    z              *
 *                                                                                  *
 * Si              1     -0.32570              0.98497             -0.13992         *
 * Si              2      0.16681             -1.19463              0.38276         *
 * H:mu            1      0.15889              0.20966             -0.24284         *
 *                                                                                  *
 ************************************************************************************
  
 +------------+-------------+-------------+-----------------+ <-- min LBFGS
 |    Step    |   lambda    |   F.delta'  |    enthalpy     | <-- min LBFGS
 +------------+-------------+-------------+-----------------+ <-- min LBFGS
 |  previous  |    0.000000 |    0.166427 |     -342.043272 | <-- min LBFGS
 | trial step |    1.000000 |    0.124965 |     -342.073518 | <-- min LBFGS
 |  line step |    4.013978 |   -0.009813 |     -342.110261 | <-- min LBFGS
 +------------+-------------+-------------+-----------------+ <-- min LBFGS
  
 LBFGS: finished iteration     4 with enthalpy= -3.42110261E+002 eV
  
 +-----------+-----------------+-----------------+------------+-----+ <-- LBFGS
 | Parameter |      value      |    tolerance    |    units   | OK? | <-- LBFGS
 +-----------+-----------------+-----------------+------------+-----+ <-- LBFGS
 |  dE/ion   |   2.232979E-002 |   2.000000E-005 |         eV | No  | <-- LBFGS
 |  |F|max   |   1.265496E+000 |   5.000000E-002 |       eV/A | No  | <-- LBFGS
 |  |dR|max  |   6.539812E-002 |   1.000000E-003 |          A | No  | <-- LBFGS
 +-----------+-----------------+-----------------+------------+-----+ <-- LBFGS
  

================================================================================
 Starting LBFGS iteration          5 ...
================================================================================

Writing analysis data to ./castep-pymuonsuite-test-data/muon-airss-out-castep/castep/Si2_24/Si2_24.castep_bin

Writing model to ./castep-pymuonsuite-test-data/muon-airss-out-castep/castep/Si2_24/Si2_24.check
  
 +------------+-------------+-------------+-----------------+ <-- min LBFGS
 |    Step    |   lambda    |   F.delta'  |    enthalpy     | <-- min LBFGS
 +------------+-------------+-------------+-----------------+ <-- min LBFGS
 |  previous  |    0.000000 |    0.112023 |     -342.110261 | <-- min LBFGS
 +------------+-------------+-------------+-----------------+ <-- min LBFGS
  

--------------------------------------------------------------------------------
 LBFGS: starting iteration         5 with trial guess (lambda=  1.000000)
--------------------------------------------------------------------------------
 
                           -------------------------------
                                     Cell Contents
                           -------------------------------
 
            xxxxxxxxxxxxxxxxxxxxxxxxxxxxxxxxxxxxxxxxxxxxxxxxxxxxxxxxxxxxxxxxx
            x  Element         Atom        Fractional coordinates of atoms  x
            x                 Number           u          v          w      x
            x---------------------------------------------------------------x
            x  Si                1        -0.035183  -0.021808   0.083901   x
            x  Si                2         0.263592   0.264419   0.207330   x
            x  H:mu              1         0.935416   0.232006   0.647453   x
            xxxxxxxxxxxxxxxxxxxxxxxxxxxxxxxxxxxxxxxxxxxxxxxxxxxxxxxxxxxxxxxxx
 
 
------------------------------------------------------------------------ <-- SCF
SCF loop      Energy                           Energy gain       Timer   <-- SCF
                                               per atom          (sec)   <-- SCF
------------------------------------------------------------------------ <-- SCF
Initial  -3.42199531E+002                                          7.20  <-- SCF
      1  -3.42128825E+002                   -2.35686282E-002       7.20  <-- SCF
      2  -3.42128979E+002                    5.13862803E-005       7.21  <-- SCF
      3  -3.42128254E+002                   -2.41838807E-004       7.22  <-- SCF
      4  -3.42128222E+002                   -1.04747043E-005       7.22  <-- SCF
      5  -3.42128223E+002                    1.25423965E-007       7.23  <-- SCF
      6  -3.42128223E+002                    7.10827813E-008       7.24  <-- SCF
      7  -3.42128223E+002                   -1.39378508E-009       7.24  <-- SCF
      8  -3.42128223E+002                    7.25234211E-010       7.25  <-- SCF
------------------------------------------------------------------------ <-- SCF
 
Final energy =  -342.1282230203     eV
(energy not corrected for finite basis set)
 
 
 ************************************** Forces **************************************
 *                                                                                  *
 *                           Cartesian components (eV/A)                            *
 * -------------------------------------------------------------------------------- *
 *                         x                    y                    z              *
 *                                                                                  *
 * Si              1     -0.15268              0.72498             -0.25201         *
 * Si              2      0.05540             -0.96528              0.42462         *
 * H:mu            1      0.09728              0.24030             -0.17261         *
 *                                                                                  *
 ************************************************************************************
  
 +------------+-------------+-------------+-----------------+ <-- min LBFGS
 |    Step    |   lambda    |   F.delta'  |    enthalpy     | <-- min LBFGS
 +------------+-------------+-------------+-----------------+ <-- min LBFGS
 |  previous  |    0.000000 |    0.112023 |     -342.110261 | <-- min LBFGS
 | trial step |    1.000000 |    0.079110 |     -342.128223 | <-- min LBFGS
 +------------+-------------+-------------+-----------------+ <-- min LBFGS
  

--------------------------------------------------------------------------------
 LBFGS: improving iteration         5 with line minimization (lambda=  3.403609)
--------------------------------------------------------------------------------
 
                           -------------------------------
                                     Cell Contents
                           -------------------------------
 
            xxxxxxxxxxxxxxxxxxxxxxxxxxxxxxxxxxxxxxxxxxxxxxxxxxxxxxxxxxxxxxxxx
            x  Element         Atom        Fractional coordinates of atoms  x
            x                 Number           u          v          w      x
            x---------------------------------------------------------------x
            x  Si                1        -0.040456  -0.023170   0.092173   x
            x  Si                2         0.259866   0.269880   0.202396   x
            x  H:mu              1         0.944415   0.227907   0.644115   x
            xxxxxxxxxxxxxxxxxxxxxxxxxxxxxxxxxxxxxxxxxxxxxxxxxxxxxxxxxxxxxxxxx
 
 
------------------------------------------------------------------------ <-- SCF
SCF loop      Energy                           Energy gain       Timer   <-- SCF
                                               per atom          (sec)   <-- SCF
------------------------------------------------------------------------ <-- SCF
Initial  -3.42308729E+002                                          7.27  <-- SCF
      1  -3.42150197E+002                   -5.28439217E-002       7.28  <-- SCF
      2  -3.42151076E+002                    2.92890733E-004       7.29  <-- SCF
      3  -3.42146637E+002                   -1.47961089E-003       7.29  <-- SCF
      4  -3.42146426E+002                   -7.02499967E-005       7.30  <-- SCF
      5  -3.42146441E+002                    4.84593832E-006       7.31  <-- SCF
      6  -3.42146442E+002                    4.02493870E-007       7.31  <-- SCF
      7  -3.42146442E+002                   -1.95684821E-008       7.32  <-- SCF
      8  -3.42146442E+002                    5.63045411E-009       7.32  <-- SCF
      9  -3.42146442E+002                    6.32588042E-010       7.33  <-- SCF
------------------------------------------------------------------------ <-- SCF
 
Final energy =  -342.1464419158     eV
(energy not corrected for finite basis set)
 
 
 ************************************** Forces **************************************
 *                                                                                  *
 *                           Cartesian components (eV/A)                            *
 * -------------------------------------------------------------------------------- *
 *                         x                    y                    z              *
 *                                                                                  *
 * Si              1      0.24519              0.11660             -0.49547         *
 * Si              2     -0.20175             -0.41548              0.50862         *
 * H:mu            1     -0.04344              0.29889             -0.01315         *
 *                                                                                  *
 ************************************************************************************
  
 +------------+-------------+-------------+-----------------+ <-- min LBFGS
 |    Step    |   lambda    |   F.delta'  |    enthalpy     | <-- min LBFGS
 +------------+-------------+-------------+-----------------+ <-- min LBFGS
 |  previous  |    0.000000 |    0.112023 |     -342.110261 | <-- min LBFGS
 | trial step |    1.000000 |    0.079110 |     -342.128223 | <-- min LBFGS
 |  line step |    3.403609 |    0.002339 |     -342.146442 | <-- min LBFGS
 +------------+-------------+-------------+-----------------+ <-- min LBFGS
  
 LBFGS: finished iteration     5 with enthalpy= -3.42146442E+002 eV
  
 +-----------+-----------------+-----------------+------------+-----+ <-- LBFGS
 | Parameter |      value      |    tolerance    |    units   | OK? | <-- LBFGS
 +-----------+-----------------+-----------------+------------+-----+ <-- LBFGS
 |  dE/ion   |   1.206022E-002 |   2.000000E-005 |         eV | No  | <-- LBFGS
 |  |F|max   |   6.870420E-001 |   5.000000E-002 |       eV/A | No  | <-- LBFGS
 |  |dR|max  |   4.027695E-002 |   1.000000E-003 |          A | No  | <-- LBFGS
 +-----------+-----------------+-----------------+------------+-----+ <-- LBFGS
  

================================================================================
 Starting LBFGS iteration          6 ...
================================================================================
  
 +------------+-------------+-------------+-----------------+ <-- min LBFGS
 |    Step    |   lambda    |   F.delta'  |    enthalpy     | <-- min LBFGS
 +------------+-------------+-------------+-----------------+ <-- min LBFGS
 |  previous  |    0.000000 |    0.070227 |     -342.146442 | <-- min LBFGS
 +------------+-------------+-------------+-----------------+ <-- min LBFGS
  

--------------------------------------------------------------------------------
 LBFGS: starting iteration         6 with trial guess (lambda=  1.000000)
--------------------------------------------------------------------------------
 
                           -------------------------------
                                     Cell Contents
                           -------------------------------
 
            xxxxxxxxxxxxxxxxxxxxxxxxxxxxxxxxxxxxxxxxxxxxxxxxxxxxxxxxxxxxxxxxx
            x  Element         Atom        Fractional coordinates of atoms  x
            x                 Number           u          v          w      x
            x---------------------------------------------------------------x
            x  Si                1        -0.040499  -0.022705   0.090818   x
            x  Si                2         0.255262   0.272747   0.203153   x
            x  H:mu              1         0.949062   0.224574   0.644713   x
            xxxxxxxxxxxxxxxxxxxxxxxxxxxxxxxxxxxxxxxxxxxxxxxxxxxxxxxxxxxxxxxxx
 
 
------------------------------------------------------------------------ <-- SCF
SCF loop      Energy                           Energy gain       Timer   <-- SCF
                                               per atom          (sec)   <-- SCF
------------------------------------------------------------------------ <-- SCF
Initial  -3.42275262E+002                                          7.37  <-- SCF
      1  -3.42156578E+002                   -3.95615565E-002       7.37  <-- SCF
      2  -3.42156865E+002                    9.56794808E-005       7.38  <-- SCF
      3  -3.42156075E+002                   -2.63255708E-004       7.39  <-- SCF
      4  -3.42156055E+002                   -6.50397315E-006       7.40  <-- SCF
      5  -3.42156056E+002                    3.99012388E-008       7.40  <-- SCF
      6  -3.42156056E+002                    6.09345455E-008       7.41  <-- SCF
      7  -3.42156056E+002                   -4.95731121E-009       7.41  <-- SCF
      8  -3.42156056E+002                    1.11778006E-009       7.42  <-- SCF
------------------------------------------------------------------------ <-- SCF
 
Final energy =  -342.1560557350     eV
(energy not corrected for finite basis set)
 
 
 ************************************** Forces **************************************
 *                                                                                  *
 *                           Cartesian components (eV/A)                            *
 * -------------------------------------------------------------------------------- *
 *                         x                    y                    z              *
 *                                                                                  *
 * Si              1      0.05563             -0.03698             -0.11009         *
 * Si              2      0.00993             -0.10696              0.07047         *
 * H:mu            1     -0.06556              0.14395              0.03963         *
 *                                                                                  *
 ************************************************************************************
  
 +------------+-------------+-------------+-----------------+ <-- min LBFGS
 |    Step    |   lambda    |   F.delta'  |    enthalpy     | <-- min LBFGS
 +------------+-------------+-------------+-----------------+ <-- min LBFGS
 |  previous  |    0.000000 |    0.070227 |     -342.146442 | <-- min LBFGS
 | trial step |    1.000000 |    0.016985 |     -342.156056 | <-- min LBFGS
 +------------+-------------+-------------+-----------------+ <-- min LBFGS
  
 LBFGS: finished iteration     6 with enthalpy= -3.42156056E+002 eV
  
 +-----------+-----------------+-----------------+------------+-----+ <-- LBFGS
 | Parameter |      value      |    tolerance    |    units   | OK? | <-- LBFGS
 +-----------+-----------------+-----------------+------------+-----+ <-- LBFGS
 |  dE/ion   |   3.204606E-003 |   2.000000E-005 |         eV | No  | <-- LBFGS
 |  |F|max   |   1.630661E-001 |   5.000000E-002 |       eV/A | No  | <-- LBFGS
 |  |dR|max  |   1.633360E-002 |   1.000000E-003 |          A | No  | <-- LBFGS
 +-----------+-----------------+-----------------+------------+-----+ <-- LBFGS
  

================================================================================
 Starting LBFGS iteration          7 ...
================================================================================
  
 +------------+-------------+-------------+-----------------+ <-- min LBFGS
 |    Step    |   lambda    |   F.delta'  |    enthalpy     | <-- min LBFGS
 +------------+-------------+-------------+-----------------+ <-- min LBFGS
 |  previous  |    0.000000 |    0.016472 |     -342.156056 | <-- min LBFGS
 +------------+-------------+-------------+-----------------+ <-- min LBFGS
  

--------------------------------------------------------------------------------
 LBFGS: starting iteration         7 with trial guess (lambda=  1.000000)
--------------------------------------------------------------------------------
 
                           -------------------------------
                                     Cell Contents
                           -------------------------------
 
            xxxxxxxxxxxxxxxxxxxxxxxxxxxxxxxxxxxxxxxxxxxxxxxxxxxxxxxxxxxxxxxxx
            x  Element         Atom        Fractional coordinates of atoms  x
            x                 Number           u          v          w      x
            x---------------------------------------------------------------x
            x  Si                1        -0.040961  -0.022169   0.090228   x
            x  Si                2         0.253703   0.273759   0.203322   x
            x  H:mu              1         0.951082   0.223026   0.645134   x
            xxxxxxxxxxxxxxxxxxxxxxxxxxxxxxxxxxxxxxxxxxxxxxxxxxxxxxxxxxxxxxxxx
 
 
------------------------------------------------------------------------ <-- SCF
SCF loop      Energy                           Energy gain       Timer   <-- SCF
                                               per atom          (sec)   <-- SCF
------------------------------------------------------------------------ <-- SCF
Initial  -3.42211560E+002                                          7.46  <-- SCF
      1  -3.42157039E+002                   -1.81736257E-002       7.46  <-- SCF
      2  -3.42157087E+002                    1.59375915E-005       7.47  <-- SCF
      3  -3.42156897E+002                   -6.32239691E-005       7.47  <-- SCF
      4  -3.42156891E+002                   -2.12117943E-006       7.48  <-- SCF
      5  -3.42156890E+002                   -1.22408517E-007       7.49  <-- SCF
      6  -3.42156890E+002                    3.97572908E-010       7.49  <-- SCF
      7  -3.42156890E+002                    1.77005742E-009       7.50  <-- SCF
------------------------------------------------------------------------ <-- SCF
 
Final energy =  -342.1568904674     eV
(energy not corrected for finite basis set)
 
 
 ************************************** Forces **************************************
 *                                                                                  *
 *                           Cartesian components (eV/A)                            *
 * -------------------------------------------------------------------------------- *
 *                         x                    y                    z              *
 *                                                                                  *
 * Si              1     -0.00541             -0.03052              0.00116         *
 * Si              2      0.07318             -0.04264             -0.05584         *
 * H:mu            1     -0.06777              0.07316              0.05468         *
 *                                                                                  *
 ************************************************************************************
  
 +------------+-------------+-------------+-----------------+ <-- min LBFGS
 |    Step    |   lambda    |   F.delta'  |    enthalpy     | <-- min LBFGS
 +------------+-------------+-------------+-----------------+ <-- min LBFGS
 |  previous  |    0.000000 |    0.016472 |     -342.156056 | <-- min LBFGS
 | trial step |    1.000000 |    0.002091 |     -342.156890 | <-- min LBFGS
 +------------+-------------+-------------+-----------------+ <-- min LBFGS
  
 LBFGS: finished iteration     7 with enthalpy= -3.42156890E+002 eV
  
 +-----------+-----------------+-----------------+------------+-----+ <-- LBFGS
 | Parameter |      value      |    tolerance    |    units   | OK? | <-- LBFGS
 +-----------+-----------------+-----------------+------------+-----+ <-- LBFGS
 |  dE/ion   |   2.782441E-004 |   2.000000E-005 |         eV | No  | <-- LBFGS
 |  |F|max   |   1.137349E-001 |   5.000000E-002 |       eV/A | No  | <-- LBFGS
 |  |dR|max  |   7.359494E-003 |   1.000000E-003 |          A | No  | <-- LBFGS
 +-----------+-----------------+-----------------+------------+-----+ <-- LBFGS
  

================================================================================
 Starting LBFGS iteration          8 ...
================================================================================
  
 +------------+-------------+-------------+-----------------+ <-- min LBFGS
 |    Step    |   lambda    |   F.delta'  |    enthalpy     | <-- min LBFGS
 +------------+-------------+-------------+-----------------+ <-- min LBFGS
 |  previous  |    0.000000 |    0.007497 |     -342.156890 | <-- min LBFGS
 +------------+-------------+-------------+-----------------+ <-- min LBFGS
  

--------------------------------------------------------------------------------
 LBFGS: starting iteration         8 with trial guess (lambda=  1.000000)
--------------------------------------------------------------------------------
 
                           -------------------------------
                                     Cell Contents
                           -------------------------------
 
            xxxxxxxxxxxxxxxxxxxxxxxxxxxxxxxxxxxxxxxxxxxxxxxxxxxxxxxxxxxxxxxxx
            x  Element         Atom        Fractional coordinates of atoms  x
            x                 Number           u          v          w      x
            x---------------------------------------------------------------x
            x  Si                1        -0.041222  -0.021993   0.090182   x
            x  Si                2         0.253485   0.274038   0.203131   x
            x  H:mu              1         0.951562   0.222572   0.645371   x
            xxxxxxxxxxxxxxxxxxxxxxxxxxxxxxxxxxxxxxxxxxxxxxxxxxxxxxxxxxxxxxxxx
 
 
------------------------------------------------------------------------ <-- SCF
SCF loop      Energy                           Energy gain       Timer   <-- SCF
                                               per atom          (sec)   <-- SCF
------------------------------------------------------------------------ <-- SCF
Initial  -3.42170584E+002                                          7.53  <-- SCF
      1  -3.42157062E+002                   -4.50738952E-003       7.54  <-- SCF
      2  -3.42157065E+002                    1.00705894E-006       7.55  <-- SCF
      3  -3.42157041E+002                   -7.94313589E-006       7.55  <-- SCF
      4  -3.42157039E+002                   -5.77562647E-007       7.56  <-- SCF
      5  -3.42157039E+002                   -1.65336998E-008       7.57  <-- SCF
      6  -3.42157039E+002                   -1.50344592E-010       7.57  <-- SCF
      7  -3.42157039E+002                    3.68506180E-010       7.58  <-- SCF
[...]
 * -------------------------------------------------------------------------------- *
 *                         x                    y                    z              *
 *                                                                                  *
 * Si              1     -0.00658              0.00059              0.02987         *
 * Si              2      0.05084             -0.00790             -0.06851         *
 * H:mu            1     -0.04425              0.00731              0.03864         *
 *                                                                                  *
 ************************************************************************************
  
 +------------+-------------+-------------+-----------------+ <-- min LBFGS
 |    Step    |   lambda    |   F.delta'  |    enthalpy     | <-- min LBFGS
 +------------+-------------+-------------+-----------------+ <-- min LBFGS
 |  previous  |    0.000000 |    0.007497 |     -342.156890 | <-- min LBFGS
 | trial step |    1.000000 |    0.005098 |     -342.157039 | <-- min LBFGS
 |  line step |    3.125535 |    0.000031 |     -342.157140 | <-- min LBFGS
 +------------+-------------+-------------+-----------------+ <-- min LBFGS
  
 LBFGS: finished iteration     8 with enthalpy= -3.42157140E+002 eV
  
 +-----------+-----------------+-----------------+------------+-----+ <-- LBFGS
 | Parameter |      value      |    tolerance    |    units   | OK? | <-- LBFGS
 +-----------+-----------------+-----------------+------------+-----+ <-- LBFGS
 |  dE/ion   |   8.333065E-005 |   2.000000E-005 |         eV | No  | <-- LBFGS
 |  |F|max   |   8.567948E-002 |   5.000000E-002 |       eV/A | No  | <-- LBFGS
 |  |dR|max  |   6.310274E-003 |   1.000000E-003 |          A | No  | <-- LBFGS
 +-----------+-----------------+-----------------+------------+-----+ <-- LBFGS
  

================================================================================
 Starting LBFGS iteration          9 ...
================================================================================
  
 +------------+-------------+-------------+-----------------+ <-- min LBFGS
 |    Step    |   lambda    |   F.delta'  |    enthalpy     | <-- min LBFGS
 +------------+-------------+-------------+-----------------+ <-- min LBFGS
 |  previous  |    0.000000 |    0.009083 |     -342.157140 | <-- min LBFGS
 +------------+-------------+-------------+-----------------+ <-- min LBFGS
  

--------------------------------------------------------------------------------
 LBFGS: starting iteration         9 with trial guess (lambda=  1.000000)
--------------------------------------------------------------------------------
 
                           -------------------------------
                                     Cell Contents
                           -------------------------------
 
            xxxxxxxxxxxxxxxxxxxxxxxxxxxxxxxxxxxxxxxxxxxxxxxxxxxxxxxxxxxxxxxxx
            x  Element         Atom        Fractional coordinates of atoms  x
            x                 Number           u          v          w      x
            x---------------------------------------------------------------x
            x  Si                1        -0.041703  -0.021661   0.090088   x
            x  Si                2         0.253379   0.274561   0.202452   x
            x  H:mu              1         0.952150   0.221716   0.646144   x
            xxxxxxxxxxxxxxxxxxxxxxxxxxxxxxxxxxxxxxxxxxxxxxxxxxxxxxxxxxxxxxxxx
 
 
------------------------------------------------------------------------ <-- SCF
SCF loop      Energy                           Energy gain       Timer   <-- SCF
                                               per atom          (sec)   <-- SCF
------------------------------------------------------------------------ <-- SCF
Initial  -3.42148272E+002                                          7.68  <-- SCF
      1  -3.42157303E+002                    3.01014394E-003       7.69  <-- SCF
      2  -3.42157305E+002                    8.93562343E-007       7.69  <-- SCF
      3  -3.42157286E+002                   -6.53596146E-006       7.70  <-- SCF
      4  -3.42157284E+002                   -4.62933669E-007       7.70  <-- SCF
      5  -3.42157284E+002                    5.75140972E-009       7.71  <-- SCF
      6  -3.42157284E+002                    2.20728289E-009       7.72  <-- SCF
------------------------------------------------------------------------ <-- SCF
 
Final energy =  -342.1572844544     eV
(energy not corrected for finite basis set)
 
 
 ************************************** Forces **************************************
 *                                                                                  *
 *                           Cartesian components (eV/A)                            *
 * -------------------------------------------------------------------------------- *
 *                         x                    y                    z              *
 *                                                                                  *
 * Si              1      0.00549              0.00495              0.01452         *
 * Si              2      0.02220             -0.00884             -0.03414         *
 * H:mu            1     -0.02769              0.00388              0.01962         *
 *                                                                                  *
 ************************************************************************************
  
 +------------+-------------+-------------+-----------------+ <-- min LBFGS
 |    Step    |   lambda    |   F.delta'  |    enthalpy     | <-- min LBFGS
 +------------+-------------+-------------+-----------------+ <-- min LBFGS
 |  previous  |    0.000000 |    0.009083 |     -342.157140 | <-- min LBFGS
 | trial step |    1.000000 |    0.004705 |     -342.157284 | <-- min LBFGS
 +------------+-------------+-------------+-----------------+ <-- min LBFGS
  

--------------------------------------------------------------------------------
 LBFGS: improving iteration         9 with line minimization (lambda=  2.074770)
--------------------------------------------------------------------------------
 
                           -------------------------------
                                     Cell Contents
                           -------------------------------
 
            xxxxxxxxxxxxxxxxxxxxxxxxxxxxxxxxxxxxxxxxxxxxxxxxxxxxxxxxxxxxxxxxx
            x  Element         Atom        Fractional coordinates of atoms  x
            x                 Number           u          v          w      x
            x---------------------------------------------------------------x
            x  Si                1        -0.041624  -0.021704   0.090092   x
            x  Si                2         0.253763   0.274486   0.202159   x
            x  H:mu              1         0.951687   0.221835   0.646434   x
            xxxxxxxxxxxxxxxxxxxxxxxxxxxxxxxxxxxxxxxxxxxxxxxxxxxxxxxxxxxxxxxxx
 
 
------------------------------------------------------------------------ <-- SCF
SCF loop      Energy                           Energy gain       Timer   <-- SCF
                                               per atom          (sec)   <-- SCF
------------------------------------------------------------------------ <-- SCF
Initial  -3.42147779E+002                                          7.74  <-- SCF
      1  -3.42157354E+002                    3.19175631E-003       7.74  <-- SCF
      2  -3.42157357E+002                    1.03054583E-006       7.75  <-- SCF
      3  -3.42157334E+002                   -7.65243712E-006       7.76  <-- SCF
      4  -3.42157333E+002                   -5.40545556E-007       7.76  <-- SCF
      5  -3.42157333E+002                    9.14143778E-009       7.77  <-- SCF
      6  -3.42157333E+002                    8.91417270E-010       7.78  <-- SCF
      7  -3.42157333E+002                    1.56000036E-010       7.78  <-- SCF
------------------------------------------------------------------------ <-- SCF
 
Final energy =  -342.1573326770     eV
(energy not corrected for finite basis set)
 
 
 ************************************** Forces **************************************
 *                                                                                  *
 *                           Cartesian components (eV/A)                            *
 * -------------------------------------------------------------------------------- *
 *                         x                    y                    z              *
 *                                                                                  *
 * Si              1      0.01849              0.00943             -0.00192         *
 * Si              2     -0.00828             -0.01000              0.00243         *
 * H:mu            1     -0.01021              0.00057             -0.00051         *
 *                                                                                  *
 ************************************************************************************
  
 +------------+-------------+-------------+-----------------+ <-- min LBFGS
 |    Step    |   lambda    |   F.delta'  |    enthalpy     | <-- min LBFGS
 +------------+-------------+-------------+-----------------+ <-- min LBFGS
 |  previous  |    0.000000 |    0.009083 |     -342.157140 | <-- min LBFGS
 | trial step |    1.000000 |    0.004705 |     -342.157284 | <-- min LBFGS
 |  line step |    2.074770 |    0.000049 |     -342.157333 | <-- min LBFGS
 +------------+-------------+-------------+-----------------+ <-- min LBFGS
  
 LBFGS: finished iteration     9 with enthalpy= -3.42157333E+002 eV
  
 +-----------+-----------------+-----------------+------------+-----+ <-- LBFGS
 | Parameter |      value      |    tolerance    |    units   | OK? | <-- LBFGS
 +-----------+-----------------+-----------------+------------+-----+ <-- LBFGS
 |  dE/ion   |   6.407256E-005 |   2.000000E-005 |         eV | No  | <-- LBFGS
 |  |F|max   |   2.084435E-002 |   5.000000E-002 |       eV/A | Yes | <-- LBFGS
 |  |dR|max  |   2.923155E-003 |   1.000000E-003 |          A | No  | <-- LBFGS
 +-----------+-----------------+-----------------+------------+-----+ <-- LBFGS
  

================================================================================
 Starting LBFGS iteration         10 ...
================================================================================

Writing analysis data to ./castep-pymuonsuite-test-data/muon-airss-out-castep/castep/Si2_24/Si2_24.castep_bin

Writing model to ./castep-pymuonsuite-test-data/muon-airss-out-castep/castep/Si2_24/Si2_24.check
  
 +------------+-------------+-------------+-----------------+ <-- min LBFGS
 |    Step    |   lambda    |   F.delta'  |    enthalpy     | <-- min LBFGS
 +------------+-------------+-------------+-----------------+ <-- min LBFGS
 |  previous  |    0.000000 |    0.001375 |     -342.157333 | <-- min LBFGS
 +------------+-------------+-------------+-----------------+ <-- min LBFGS
  

--------------------------------------------------------------------------------
 LBFGS: starting iteration        10 with trial guess (lambda=  1.000000)
--------------------------------------------------------------------------------
 
                           -------------------------------
                                     Cell Contents
                           -------------------------------
 
            xxxxxxxxxxxxxxxxxxxxxxxxxxxxxxxxxxxxxxxxxxxxxxxxxxxxxxxxxxxxxxxxx
            x  Element         Atom        Fractional coordinates of atoms  x
            x                 Number           u          v          w      x
            x---------------------------------------------------------------x
            x  Si                1        -0.041498  -0.021730   0.090019   x
            x  Si                2         0.253780   0.274461   0.202176   x
            x  H:mu              1         0.951544   0.221885   0.646489   x
            xxxxxxxxxxxxxxxxxxxxxxxxxxxxxxxxxxxxxxxxxxxxxxxxxxxxxxxxxxxxxxxxx
 
 
------------------------------------------------------------------------ <-- SCF
SCF loop      Energy                           Energy gain       Timer   <-- SCF
                                               per atom          (sec)   <-- SCF
------------------------------------------------------------------------ <-- SCF
Initial  -3.42154511E+002                                          7.87  <-- SCF
      1  -3.42157339E+002                    9.42545054E-004       7.87  <-- SCF
      2  -3.42157339E+002                    5.05758659E-008       7.88  <-- SCF
      3  -3.42157338E+002                   -3.09118744E-007       7.88  <-- SCF
      4  -3.42157338E+002                   -1.35094388E-008       7.89  <-- SCF
      5  -3.42157338E+002                    2.78051294E-010       7.90  <-- SCF
      6  -3.42157338E+002                    4.05226287E-011       7.90  <-- SCF
------------------------------------------------------------------------ <-- SCF
 
Final energy =  -342.1573381678     eV
(energy not corrected for finite basis set)
 
 
 ************************************** Forces **************************************
 *                                                                                  *
 *                           Cartesian components (eV/A)                            *
 * -------------------------------------------------------------------------------- *
 *                         x                    y                    z              *
 *                                                                                  *
 * Si              1      0.01077              0.00437              0.00452         *
 * Si              2     -0.00379             -0.00381             -0.00034         *
 * H:mu            1     -0.00699             -0.00056             -0.00418         *
 *                                                                                  *
 ************************************************************************************
  
 +------------+-------------+-------------+-----------------+ <-- min LBFGS
 |    Step    |   lambda    |   F.delta'  |    enthalpy     | <-- min LBFGS
 +------------+-------------+-------------+-----------------+ <-- min LBFGS
 |  previous  |    0.000000 |    0.001375 |     -342.157333 | <-- min LBFGS
 | trial step |    1.000000 |    0.000451 |     -342.157338 | <-- min LBFGS
 +------------+-------------+-------------+-----------------+ <-- min LBFGS
  
 LBFGS: finished iteration    10 with enthalpy= -3.42157338E+002 eV
  
 +-----------+-----------------+-----------------+------------+-----+ <-- LBFGS
 | Parameter |      value      |    tolerance    |    units   | OK? | <-- LBFGS
 +-----------+-----------------+-----------------+------------+-----+ <-- LBFGS
 |  dE/ion   |   1.830260E-006 |   2.000000E-005 |         eV | Yes | <-- LBFGS
 |  |F|max   |   1.247224E-002 |   5.000000E-002 |       eV/A | Yes | <-- LBFGS
 |  |dR|max  |   4.462283E-004 |   1.000000E-003 |          A | Yes | <-- LBFGS
 +-----------+-----------------+-----------------+------------+-----+ <-- LBFGS
  
 LBFGS: Geometry optimization completed successfully.

================================================================================
 LBFGS: Final Configuration:
================================================================================
 
                           -------------------------------
                                     Cell Contents
                           -------------------------------
 
            xxxxxxxxxxxxxxxxxxxxxxxxxxxxxxxxxxxxxxxxxxxxxxxxxxxxxxxxxxxxxxxxx
            x  Element         Atom        Fractional coordinates of atoms  x
            x                 Number           u          v          w      x
            x---------------------------------------------------------------x
            x  Si                1        -0.041498  -0.021730   0.090019   x
            x  Si                2         0.253780   0.274461   0.202176   x
            x  H:mu              1         0.951544   0.221885   0.646489   x
            xxxxxxxxxxxxxxxxxxxxxxxxxxxxxxxxxxxxxxxxxxxxxxxxxxxxxxxxxxxxxxxxx
 
 
 LBFGS: Final Enthalpy     = -3.42157338E+002 eV
 LBFGS: Final <frequency>  =    1176.83026 cm-1
 
 ************************************** Forces **************************************
 *                                                                                  *
 *                           Cartesian components (eV/A)                            *
 * -------------------------------------------------------------------------------- *
 *                         x                    y                    z              *
 *                                                                                  *
 * Si              1      0.01077              0.00437              0.00452         *
 * Si              2     -0.00379             -0.00381             -0.00034         *
 * H:mu            1     -0.00699             -0.00056             -0.00418         *
 *                                                                                  *
 ************************************************************************************
 
 Pseudo atomic calculation performed for Si 3s2 3p2
 
 Converged in 21 iterations to a total energy of -162.9266 eV
 
 Pseudo atomic calculation performed for H:mu 1s1
 
 Converged in 18 iterations to a total energy of -11.6786 eV
Charge spilling parameter for spin component 1 = 2.33%
 
            Orbital Populations       
     Ion    Atom   Orbital             Charge
  -------------------------------------------
     Si     1      S                    0.984
     Si     1      Px                   0.764
     Si     1      Py                   0.911
     Si     1      Pz                   0.722
     Si     2      S                    0.980
     Si     2      Px                   0.875
     Si     2      Py                   0.656
     Si     2      Pz                   0.896
   H:mu     1      S                    1.213
  -------------------------------------------
                           Total:       8.000
  -------------------------------------------
 
     Atomic Populations (Mulliken)
     -----------------------------
Species          Ion     s      p      d      f     Total  Charge (e)
=====================================================================
  Si              1     0.98   2.40   0.00   0.00   3.38     0.62
  Si              2     0.98   2.43   0.00   0.00   3.41     0.59
  H:mu            1     1.21   0.00   0.00   0.00   1.21    -0.21
=====================================================================
 
                 Bond                   Population      Length (A)
======================================================================
              Si 1 -- H:mu 1                -1.73        1.47369
              Si 2 -- H:mu 1                -1.77        1.47522
              Si 1 -- Si 2                   2.84        2.22696
======================================================================
 

Writing analysis data to ./castep-pymuonsuite-test-data/muon-airss-out-castep/castep/Si2_24/Si2_24.castep_bin

Writing model to ./castep-pymuonsuite-test-data/muon-airss-out-castep/castep/Si2_24/Si2_24.check
 
 A BibTeX formatted list of references used in this run has been written to 
 ./castep-pymuonsuite-test-data/muon-airss-out-castep/castep/Si2_24/Si2_24.bib
 
Initialisation time =      5.28 s
Calculation time    =      2.89 s
Finalisation time   =      0.13 s
Total time          =      8.30 s
Peak Memory Use     = 814168 kB
  
Overall parallel efficiency rating: Poor (35%)                                  
  
Data was distributed by:-
G-vector (8-way); efficiency rating: Poor (36%)                                 
  
Parallel notes:
1) Calculation only took 8.2 s, so efficiency estimates may be inaccurate.      
