 +-------------------------------------------------+
 |                                                 |
 |      CCC   AA    SSS  TTTTT  EEEEE  PPPP        |
 |     C     A  A  S       T    E      P   P       |
 |     C     AAAA   SS     T    EEE    PPPP        |
 |     C     A  A     S    T    E      P           |
 |      CCC  A  A  SSS     T    EEEEE  P           |
 |                                                 |
 +-------------------------------------------------+
 |                                                 |
 | Welcome to Academic Release CASTEP version 19.11|          
 | Ab Initio Total Energy Program                  |
 |                                                 |
 | Authors:                                        |
 | M. Segall, M. Probert, C. Pickard, P. Hasnip,   |
 | S. Clark, K. Refson, J. R. Yates, M. Payne      |
 |                                                 |
 | Contributors:                                   |
 | P. Lindan, P. Haynes, J. White, V. Milman,      |
 | N. Govind, M. Gibson, P. Tulip, V. Cocula,      |
 | B. Montanari, D. Quigley, M. Glover,            |
 | L. Bernasconi, A. Perlov, M. Plummer,           |
 | E. McNellis, J. Meyer, J. Gale, D. Jochym       |
 | J. Aarons, B. Walker, R. Gillen, D. Jones       |
 | T. Green, I. J. Bush, C. J. Armstrong,          |
 | E. J. Higgins, E. L. Brown, M. S. McFly,        |
 | J. Wilkins, B-C. Shih, P. J. P. Byrne           |
 |                                                 |
 | Copyright (c) 2000 - 2018                       |
 |                                                 |
 |     Distributed under the terms of an           |
 |     Agreement between the United Kingdom        |
 |     Car-Parrinello (UKCP) Consortium,           |
 |     Daresbury Laboratory and Accelrys, Inc.     |
 |                                                 |
 | Please cite                                     |
 |                                                 |
 |     "First principles methods using CASTEP"     |
 |                                                 |
 |         Zeitschrift fuer Kristallographie       |
 |           220(5-6) pp. 567-570 (2005)           |
 |                                                 |
 | S. J. Clark, M. D. Segall, C. J. Pickard,       |
 | P. J. Hasnip, M. J. Probert, K. Refson,         |
 | M. C. Payne                                     |
 |                                                 |
 |       in all publications arising from          |
 |              your use of CASTEP                 |
 |                                                 |
 +-------------------------------------------------+
 |                                                 |
 |              http://www.castep.org              |
 |                                                 |
 +-------------------------------------------------+
 
 
 
 Compiled for linux_x86_64_ifort18 on Fri, 05 Jul 2019 15:43:56 +0100
 from code version 
 0a9e5daac2f4+ Castep191_branch Wed, 03 Jul 2019 08:43:28 +0000
 Compiler: Intel Fortran 18.0.3.222; Optimisation: fast
 MATHLIBS: Intel MKL(2018.0.3) (LAPACK version 3.7.0)
 FFT Lib : default
 Fundamental constants values: CODATA 2014
 
 Run started: Tue, 17 Nov 2020 15:10:09 +0000
 
 Atomic calculation performed for Si: 1s2 2s2 2p6 3s2 3p2
 
 Converged in 55 iterations to an ae energy of -7859.183 eV
 
   ============================================================                
   | Pseudopotential Report - Date of generation 17-11-2020   |                
   ------------------------------------------------------------                
   | Element: Si Ionic charge:  4.00 Level of theory: LDA     |                
   | Atomic Solver: Koelling-Harmon                           |                
   |                                                          |                
   |               Reference Electronic Structure             |                
   |         Orbital         Occupation         Energy        |                
   |            3s              2.000           -0.400        |                
   |            3p              2.000           -0.153        |                
   |                                                          |                
   |                 Pseudopotential Definition               |                
   |        Beta     l      e      Rc     scheme   norm       |                
   |          1      0   -0.400   1.797     qc      0         |                
   |          2      0    0.250   1.797     qc      0         |                
   |          3      1   -0.153   1.797     qc      0         |                
   |          4      1    0.250   1.797     qc      0         |                
   |          5      2    0.000   1.797     qc      0         |                
   |          6      2    0.250   1.797     qc      0         |                
   |         loc     3    0.000   1.797     pn      0         |                
   |                                                          |                
   | Augmentation charge Rinner = 1.255                       |                
   | Partial core correction Rc = 1.255                       |                
   ------------------------------------------------------------                
   | "3|1.8|5|6|7|30:31:32"                                   |                
   ------------------------------------------------------------                
   |      Author: Chris J. Pickard, Cambridge University      |                
   ============================================================                
 
 Atomic calculation performed for H:mu: 1s1
 
 Converged in 41 iterations to an ae energy of -12.134 eV
 
   ============================================================                
   | Pseudopotential Report - Date of generation 17-11-2020   |                
   ------------------------------------------------------------                
   | Element: H Ionic charge:  1.00 Level of theory: LDA      |                
   | Atomic Solver: Koelling-Harmon                           |                
   |                                                          |                
   |               Reference Electronic Structure             |                
   |         Orbital         Occupation         Energy        |                
   |            1s              1.000           -0.234        |                
   |                                                          |                
   |                 Pseudopotential Definition               |                
   |        Beta     l      e      Rc     scheme   norm       |                
   |          1      0   -0.234   0.599     qc      0         |                
   |          2      0    0.250   0.599     qc      0         |                
   |         loc     1    0.000   0.599     pn      0         |                
   |                                                          |                
   | Augmentation charge Rinner = 0.421                       |                
   | No partial core correction                               |                
   ------------------------------------------------------------                
   | "1|0.6|13|15|17|10(qc=8)"                                |                
   ------------------------------------------------------------                
   |      Author: Chris J. Pickard, Cambridge University      |                
   ============================================================                
 
 Pseudo atomic calculation performed for Si 3s2 3p2
 
 Converged in 21 iterations to a total energy of -162.9266 eV
 
 Pseudo atomic calculation performed for H:mu 1s1
 
 Converged in 18 iterations to a total energy of -11.6786 eV
 Calculation parallelised over 8 processes.
 Data is distributed by G-vector(8-way)

 ************************************ Title ************************************
 

 ***************************** General Parameters ******************************
  
 output verbosity                               : normal  (1)
 write checkpoint data to                       : ./castep-pymuonsuite-test-data/muon-airss-out-castep/castep/Si2_6/Si2_6.check
 type of calculation                            : geometry optimization
 stress calculation                             : off
 density difference calculation                 : off
 electron localisation func (ELF) calculation   : off
 Hirshfeld analysis                             : off
 unlimited duration calculation
 timing information                             : on
 memory usage estimate                          : on
 write extra output files                       : on
 write final potential to formatted file        : off
 write final density to formatted file          : on
 write structure in CELL formatted file         : on
 write BibTeX reference list                    : on
 write OTFG pseudopotential files               : on
 write electrostatic potential file             : on
 write bands file                               : on
 checkpoint writing                             : both castep_bin and check files
  
 output         length unit                     : A
 output           mass unit                     : amu
 output           time unit                     : ps
 output         charge unit                     : e
 output           spin unit                     : hbar/2
 output         energy unit                     : eV
 output          force unit                     : eV/A
 output       velocity unit                     : A/ps
 output       pressure unit                     : GPa
 output     inv_length unit                     : 1/A
 output      frequency unit                     : cm-1
 output force constant unit                     : eV/A**2
 output         volume unit                     : A**3
 output   IR intensity unit                     : (D/A)**2/amu
 output         dipole unit                     : D
 output         efield unit                     : eV/A/e
 output        entropy unit                     : J/mol/K
  
 wavefunctions paging                           : none
 random number generator seed                   : randomised (151009073)
 data distribution                              : optimal for this architecture
 optimization strategy                          : maximize speed(+++)

 *********************** Exchange-Correlation Parameters ***********************
  
 using functional                               : Local Density Approximation
 relativistic treatment                         : Koelling-Harmon
 DFT+D: Semi-empirical dispersion correction    : off

 ************************* Pseudopotential Parameters **************************
  
 pseudopotential representation                 : reciprocal space
 <beta|phi> representation                      : reciprocal space
 spin-orbit coupling                            : off

 **************************** Basis Set Parameters *****************************
  
 plane wave basis set cut-off                   :   150.0000   eV
 size of standard grid                          :     2.0000
 size of   fine   gmax                          :    12.5491   1/A
 finite basis set correction                    : none

 **************************** Electronic Parameters ****************************
  
 number of  electrons                           :  8.000    
 net charge of system                           : +1.000    
 treating system as non-spin-polarized
 number of bands                                :          4

 ********************* Electronic Minimization Parameters **********************
  
 Method: Treating system as non-metallic,
         and number of  SD  steps               :          1
         and number of  CG  steps               :          4
  
 total energy / atom convergence tol.           : 0.1000E-07   eV
 eigen-energy convergence tolerance             : 0.7500E-08   eV
 max force / atom convergence tol.              : ignored
 convergence tolerance window                   :          3   cycles
 max. number of SCF cycles                      :        200
 periodic dipole correction                     : NONE

 ************************** Density Mixing Parameters **************************
  
 density-mixing scheme                          : Broyden
 max. length of mixing history                  :         20
 charge density mixing amplitude                : 0.8000    
 cut-off energy for mixing                      :  150.0       eV

 *********************** Population Analysis Parameters ************************
  
 Population analysis with cutoff                :  3.000       A
 Population analysis output                     : summary and pdos components

 ********************** Geometry Optimization Parameters ***********************
  
 optimization method                            : LBFGS
 max. no. of LBFGS updates                      : unbounded
 variable cell method                           : fixed basis quality
 max. number of steps                           :        300
 estimated bulk modulus                         :  500.0       GPa
 estimated <frequency>                          :  1668.       cm-1
 geom line minimiser                            : on
 with line minimiser tolerance                  :     0.4000
 total energy convergence tolerance             : 0.2000E-04   eV/atom
        max ionic |force| tolerance             : 0.5000E-01   eV/A
 max ionic |displacement| tolerance             : 0.1000E-02   A
   max |stress component| tolerance             : 0.1000       GPa
 convergence tolerance window                   :          2   steps
 backup results every                           :          5   steps
 write geom trajectory file                     : on

 *******************************************************************************
  
 
                           -------------------------------
                                      Unit Cell
                           -------------------------------
        Real Lattice(A)                      Reciprocal Lattice(1/A)
     2.6954640     2.6954640     0.0000000        1.165510893   1.165510893  -1.165510893
     2.6954640     0.0000000     2.6954640        1.165510893  -1.165510893   1.165510893
     0.0000000     2.6954640     2.6954640       -1.165510893   1.165510893   1.165510893
 
                       Lattice parameters(A)       Cell Angles
                    a =      3.811962          alpha =   60.000000
                    b =      3.811962          beta  =   60.000000
                    c =      3.811962          gamma =   60.000000
 
                       Current cell volume =            39.167928       A**3
                                   density =             1.459841   AMU/A**3
                                           =             2.424123     g/cm^3
 
                           -------------------------------
                                     Cell Contents
                           -------------------------------
                         Total number of ions in cell =    3
                      Total number of species in cell =    2
                        Max number of any one species =    2
 
            xxxxxxxxxxxxxxxxxxxxxxxxxxxxxxxxxxxxxxxxxxxxxxxxxxxxxxxxxxxx
            x  Element    Atom        Fractional coordinates of atoms  x
            x            Number           u          v          w      x
            x----------------------------------------------------------x
            x  Si           1         0.000000   0.000000   0.000000   x 
            x  Si           2         0.250000   0.250000   0.250000   x 
            x  H:mu         1         0.337195   0.002147   0.995506   x 
            xxxxxxxxxxxxxxxxxxxxxxxxxxxxxxxxxxxxxxxxxxxxxxxxxxxxxxxxxxxx
 
 
                         No user defined ionic velocities
 
                           -------------------------------
                                   Details of Species
                           -------------------------------
 
                               Mass of species in AMU
                                    Si   28.0855000
                                    H:mu    0.1134289
 
                          Electric Quadrupole Moment (Barn)
                                    Si    1.0000000 No Isotope Defined
                                    H:mu    0.0028600 Isotope  2
 
                          Files used for pseudopotentials:
                                    Si 3|1.8|5|6|7|30:31:32
                                    H:mu 1|0.6|13|15|17|10(qc=8)
 
                           -------------------------------
                              k-Points For BZ Sampling
                           -------------------------------
                       MP grid size for SCF calculation is  1  1  1
                            with an offset of   0.000  0.000  0.000
                       Number of kpoints used =             1
 
                           -------------------------------
                               Symmetry and Constraints
                           -------------------------------
 
                      Maximum deviation from symmetry =  0.00000         ANG
 
                      Number of symmetry operations   =           1
                      Number of ionic constraints     =           3
                      Point group of crystal =     1: C1, 1, 1
                      Space group of crystal =     1: P1, P 1
 
             Set iprint > 1 for details on symmetry rotations/translations
 
                         Centre of mass is constrained
             Set iprint > 1 for details of linear ionic constraints
 
                         Number of cell constraints= 6
                         Cell constraints are:  0 0 0 0 0 0
 
                         External pressure/stress (GPa)
                          0.00000   0.00000   0.00000
                                    0.00000   0.00000
                                              0.00000
  
+---------------- MEMORY AND SCRATCH DISK ESTIMATES PER PROCESS --------------+
|                                                     Memory          Disk    |
| Baseline code, static data and system overhead      463.0 MB         0.0 MB |
| BLAS internal memory storage                          0.0 MB         0.0 MB |
| Model and support data                               25.0 MB         0.0 MB |
| Electronic energy minimisation requirements           0.2 MB         0.0 MB |
| Force calculation requirements                        0.1 MB         0.0 MB |
|                                               ----------------------------- |
| Approx. total storage required per process          488.2 MB         0.0 MB |
|                                                                             |
| Requirements will fluctuate during execution and may exceed these estimates |
+-----------------------------------------------------------------------------+
Calculating total energy with cut-off of  150.000 eV.
------------------------------------------------------------------------ <-- SCF
SCF loop      Energy                           Energy gain       Timer   <-- SCF
                                               per atom          (sec)   <-- SCF
------------------------------------------------------------------------ <-- SCF
Initial  -7.82023381E+001                                          5.71  <-- SCF
      1  -3.14924631E+002                    7.89074311E+001       5.71  <-- SCF
      2  -3.41736894E+002                    8.93742086E+000       5.72  <-- SCF
      3  -3.42341900E+002                    2.01668759E-001       5.73  <-- SCF
      4  -3.40259032E+002                   -6.94289254E-001       5.73  <-- SCF
      5  -3.40139236E+002                   -3.99321205E-002       5.74  <-- SCF
      6  -3.40034130E+002                   -3.50352635E-002       5.75  <-- SCF
      7  -3.40008391E+002                   -8.57975036E-003       5.76  <-- SCF
      8  -3.40022465E+002                    4.69140322E-003       5.77  <-- SCF
      9  -3.39999017E+002                   -7.81608169E-003       5.79  <-- SCF
     10  -3.39993916E+002                   -1.70033623E-003       5.79  <-- SCF
     11  -3.40124894E+002                    4.36593041E-002       5.80  <-- SCF
     12  -3.40092307E+002                   -1.08621530E-002       5.81  <-- SCF
     13  -3.40022620E+002                   -2.32292431E-002       5.82  <-- SCF
     14  -3.40424666E+002                    1.34015314E-001       5.83  <-- SCF
     15  -3.40312406E+002                   -3.74197627E-002       5.84  <-- SCF
     16  -3.40222804E+002                   -2.98676019E-002       5.85  <-- SCF
     17  -3.40098604E+002                   -4.13999778E-002       5.86  <-- SCF
     18  -3.40068420E+002                   -1.00612402E-002       5.87  <-- SCF
     19  -3.40033359E+002                   -1.16869257E-002       5.88  <-- SCF
     20  -3.40005768E+002                   -9.19689544E-003       5.89  <-- SCF
     21  -3.40004031E+002                   -5.78991651E-004       5.90  <-- SCF
     22  -3.40002094E+002                   -6.45825419E-004       5.91  <-- SCF
     23  -3.40001804E+002                   -9.65868828E-005       5.93  <-- SCF
     24  -3.40001322E+002                   -1.60724511E-004       5.94  <-- SCF
     25  -3.39998984E+002                   -7.79225862E-004       5.95  <-- SCF
     26  -3.40036455E+002                    1.24902996E-002       5.96  <-- SCF
     27  -3.39995837E+002                   -1.35394876E-002       5.97  <-- SCF
     28  -3.40914133E+002                    3.06098617E-001       5.98  <-- SCF
     29  -3.40517115E+002                   -1.32339057E-001       5.99  <-- SCF
     30  -3.40031642E+002                   -1.61824345E-001       6.01  <-- SCF
     31  -3.40713958E+002                    2.27438519E-001       6.02  <-- SCF
     32  -3.40408770E+002                   -1.01729321E-001       6.03  <-- SCF
     33  -3.40170419E+002                   -7.94503631E-002       6.04  <-- SCF
     34  -3.40093860E+002                   -2.55194944E-002       6.05  <-- SCF
     35  -3.40045757E+002                   -1.60343537E-002       6.07  <-- SCF
     36  -3.40013068E+002                   -1.08964058E-002       6.08  <-- SCF
     37  -3.40005074E+002                   -2.66481529E-003       6.09  <-- SCF
     38  -3.40005543E+002                    1.56386709E-004       6.10  <-- SCF
     39  -3.40007004E+002                    4.86992100E-004       6.11  <-- SCF
     40  -3.40030189E+002                    7.72831895E-003       6.12  <-- SCF
     41  -3.40071344E+002                    1.37183981E-002       6.14  <-- SCF
     42  -3.40107509E+002                    1.20550016E-002       6.15  <-- SCF
     43  -3.40125945E+002                    6.14525544E-003       6.16  <-- SCF
     44  -3.40098845E+002                   -9.03328208E-003       6.17  <-- SCF
     45  -3.40035273E+002                   -2.11906830E-002       6.18  <-- SCF
     46  -3.39988818E+002                   -1.54848246E-002       6.19  <-- SCF
     47  -3.40117240E+002                    4.28073379E-002       6.20  <-- SCF
     48  -3.40101082E+002                   -5.38601758E-003       6.21  <-- SCF
     49  -3.41125213E+002                    3.41376878E-001       6.23  <-- SCF
     50  -3.40555417E+002                   -1.89932130E-001       6.24  <-- SCF
     51  -3.41471880E+002                    3.05487765E-001       6.25  <-- SCF
     52  -3.40312469E+002                   -3.86470261E-001       6.26  <-- SCF
     53  -3.40602474E+002                    9.66683493E-002       6.27  <-- SCF
     54  -3.41184299E+002                    1.93941757E-001       6.29  <-- SCF
     55  -3.40635867E+002                   -1.82810675E-001       6.30  <-- SCF
     56  -3.40073435E+002                   -1.87477626E-001       6.31  <-- SCF
     57  -3.40240468E+002                    5.56777351E-002       6.32  <-- SCF
     58  -3.40679083E+002                    1.46205088E-001       6.33  <-- SCF
     59  -3.40269620E+002                   -1.36487660E-001       6.34  <-- SCF
     60  -3.40198714E+002                   -2.36354298E-002       6.35  <-- SCF
     61  -3.40092581E+002                   -3.53775938E-002       6.37  <-- SCF
     62  -3.40009224E+002                   -2.77855002E-002       6.38  <-- SCF
     63  -3.40051979E+002                    1.42513777E-002       6.39  <-- SCF
     64  -3.40627924E+002                    1.91981853E-001       6.40  <-- SCF
     65  -3.40626521E+002                   -4.67552648E-004       6.41  <-- SCF
     66  -3.41821208E+002                    3.98228830E-001       6.42  <-- SCF
     67  -3.39936275E+002                   -6.28311053E-001       6.43  <-- SCF
     68  -3.42856706E+002                    9.73476909E-001       6.44  <-- SCF
     69  -3.40871465E+002                   -6.61746839E-001       6.45  <-- SCF
     70  -3.40033419E+002                   -2.79348822E-001       6.46  <-- SCF
     71  -3.40143391E+002                    3.66573280E-002       6.47  <-- SCF
     72  -3.40015438E+002                   -4.26506867E-002       6.48  <-- SCF
     73  -3.40350288E+002                    1.11616499E-001       6.50  <-- SCF
     74  -3.40195084E+002                   -5.17346950E-002       6.51  <-- SCF
     75  -3.40167048E+002                   -9.34536721E-003       6.52  <-- SCF
     76  -3.40081048E+002                   -2.86666952E-002       6.53  <-- SCF
     77  -3.40008026E+002                   -2.43406505E-002       6.54  <-- SCF
     78  -3.40004625E+002                   -1.13362135E-003       6.55  <-- SCF
     79  -3.40029260E+002                    8.21166658E-003       6.57  <-- SCF
     80  -3.40006633E+002                   -7.54239466E-003       6.58  <-- SCF
     81  -3.40008631E+002                    6.66246376E-004       6.59  <-- SCF
     82  -3.40011129E+002                    8.32617133E-004       6.60  <-- SCF
     83  -3.40000694E+002                   -3.47842796E-003       6.61  <-- SCF
     84  -3.40008708E+002                    2.67148389E-003       6.62  <-- SCF
     85  -3.39999293E+002                   -3.13855294E-003       6.64  <-- SCF
     86  -3.40007582E+002                    2.76299171E-003       6.65  <-- SCF
     87  -3.40005912E+002                   -5.56518073E-004       6.66  <-- SCF
     88  -3.40018823E+002                    4.30342906E-003       6.67  <-- SCF
     89  -3.40001453E+002                   -5.78984668E-003       6.69  <-- SCF
     90  -3.39999200E+002                   -7.50832075E-004       6.70  <-- SCF
     91  -3.39998983E+002                   -7.25335612E-005       6.71  <-- SCF
     92  -3.40003716E+002                    1.57765975E-003       6.72  <-- SCF
     93  -3.40002799E+002                   -3.05577307E-004       6.73  <-- SCF
     94  -3.40119326E+002                    3.88424265E-002       6.74  <-- SCF
     95  -3.40072072E+002                   -1.57513425E-002       6.75  <-- SCF
     96  -3.40224460E+002                    5.07958815E-002       6.76  <-- SCF
     97  -3.40205265E+002                   -6.39824907E-003       6.78  <-- SCF
     98  -3.40228716E+002                    7.81707124E-003       6.79  <-- SCF
     99  -3.40225286E+002                   -1.14360178E-003       6.80  <-- SCF
    100  -3.40648593E+002                    1.41102305E-001       6.81  <-- SCF
    101  -3.41275955E+002                    2.09120847E-001       6.82  <-- SCF
    102  -3.40347526E+002                   -3.09476359E-001       6.83  <-- SCF
    103  -3.40067251E+002                   -9.34251743E-002       6.84  <-- SCF
    104  -3.40008890E+002                   -1.94533855E-002       6.85  <-- SCF
    105  -3.39998111E+002                   -3.59322482E-003       6.86  <-- SCF
    106  -3.40147326E+002                    4.97383308E-002       6.87  <-- SCF
    107  -3.40043947E+002                   -3.44594760E-002       6.88  <-- SCF
    108  -3.40656135E+002                    2.04062447E-001       6.89  <-- SCF
    109  -3.40961813E+002                    1.01892832E-001       6.90  <-- SCF
    110  -3.40604888E+002                   -1.18975162E-001       6.91  <-- SCF
    111  -3.40212413E+002                   -1.30824992E-001       6.92  <-- SCF
    112  -3.40014397E+002                   -6.60053312E-002       6.93  <-- SCF
    113  -3.40163025E+002                    4.95427315E-002       6.95  <-- SCF
    114  -3.40006466E+002                   -5.21863297E-002       6.96  <-- SCF
    115  -3.39919660E+002                   -2.89352163E-002       6.97  <-- SCF
    116  -3.40266996E+002                    1.15778732E-001       6.98  <-- SCF
    117  -3.40197566E+002                   -2.31435981E-002       6.99  <-- SCF
    118  -3.40137371E+002                   -2.00647500E-002       7.00  <-- SCF
    119  -3.40071201E+002                   -2.20568926E-002       7.02  <-- SCF
    120  -3.40075046E+002                    1.28188700E-003       7.03  <-- SCF
    121  -3.40111833E+002                    1.22622621E-002       7.04  <-- SCF
    122  -3.40100713E+002                   -3.70662575E-003       7.05  <-- SCF
    123  -3.40114580E+002                    4.62240726E-003       7.06  <-- SCF
    124  -3.40139717E+002                    8.37872545E-003       7.07  <-- SCF
    125  -3.40106157E+002                   -1.11866383E-002       7.08  <-- SCF
    126  -3.40007145E+002                   -3.30039905E-002       7.09  <-- SCF
    127  -3.40000144E+002                   -2.33353218E-003       7.10  <-- SCF
    128  -3.40013498E+002                    4.45117081E-003       7.12  <-- SCF
    129  -3.39926664E+002                   -2.89445424E-002       7.12  <-- SCF
    130  -3.37215868E+002                   -9.03598769E-001       7.13  <-- SCF
    131  -3.42812537E+002                    1.86555656E+000       7.15  <-- SCF
    132  -3.42090007E+002                   -2.40843356E-001       7.15  <-- SCF
    133  -3.40114839E+002                   -6.58389576E-001       7.16  <-- SCF
    134  -3.40918979E+002                    2.68046840E-001       7.18  <-- SCF
    135  -3.40221198E+002                   -2.32593624E-001       7.19  <-- SCF
    136  -3.42987258E+002                    9.22019996E-001       7.20  <-- SCF
    137  -3.40903188E+002                   -6.94690023E-001       7.21  <-- SCF
    138  -3.40191249E+002                   -2.37313064E-001       7.22  <-- SCF
    139  -3.40004784E+002                   -6.21549363E-002       7.23  <-- SCF
    140  -3.40004871E+002                    2.91037088E-005       7.24  <-- SCF
    141  -3.40093649E+002                    2.95923984E-002       7.25  <-- SCF
    142  -3.39950627E+002                   -4.76738908E-002       7.26  <-- SCF
    143  -3.40033691E+002                    2.76880716E-002       7.27  <-- SCF
    144  -3.40382354E+002                    1.16220768E-001       7.29  <-- SCF
    145  -3.40377747E+002                   -1.53560772E-003       7.30  <-- SCF
    146  -3.44714813E+002                    1.44568879E+000       7.31  <-- SCF
    147  -3.41329391E+002                   -1.12847408E+000       7.32  <-- SCF
    148  -3.40207628E+002                   -3.73921088E-001       7.33  <-- SCF
    149  -3.40016555E+002                   -6.36908779E-002       7.34  <-- SCF
    150  -3.40002938E+002                   -4.53915240E-003       7.35  <-- SCF
    151  -3.40033475E+002                    1.01792414E-002       7.36  <-- SCF
    152  -3.40056800E+002                    7.77501946E-003       7.37  <-- SCF
    153  -3.40847199E+002                    2.63466367E-001       7.38  <-- SCF
    154  -3.40687590E+002                   -5.32032661E-002       7.40  <-- SCF
    155  -3.47785506E+002                    2.36597213E+000       7.41  <-- SCF
    156  -3.41982802E+002                   -1.93423478E+000       7.42  <-- SCF
    157  -3.40128354E+002                   -6.18149214E-001       7.43  <-- SCF
    158  -3.40068512E+002                   -1.99473688E-002       7.44  <-- SCF
    159  -3.40051015E+002                   -5.83220114E-003       7.45  <-- SCF
    160  -3.40015660E+002                   -1.17850440E-002       7.46  <-- SCF
    161  -3.40033467E+002                    5.93558692E-003       7.47  <-- SCF
    162  -3.39923339E+002                   -3.67092502E-002       7.48  <-- SCF
    163  -3.40440176E+002                    1.72278927E-001       7.50  <-- SCF
    164  -3.40298093E+002                   -4.73608664E-002       7.51  <-- SCF
    165  -3.40303353E+002                    1.75322377E-003       7.52  <-- SCF
    166  -3.40123203E+002                   -6.00499154E-002       7.53  <-- SCF
    167  -3.40231416E+002                    3.60709016E-002       7.54  <-- SCF
    168  -3.40438095E+002                    6.88929816E-002       7.55  <-- SCF
    169  -3.40102227E+002                   -1.11956096E-001       7.56  <-- SCF
    170  -3.40051986E+002                   -1.67468975E-002       7.57  <-- SCF
    171  -3.40119852E+002                    2.26220638E-002       7.58  <-- SCF
    172  -3.40083521E+002                   -1.21104333E-002       7.60  <-- SCF
    173  -3.40042332E+002                   -1.37295517E-002       7.61  <-- SCF
    174  -3.40019396E+002                   -7.64540808E-003       7.62  <-- SCF
    175  -3.40004746E+002                   -4.88342160E-003       7.63  <-- SCF
    176  -3.40007607E+002                    9.53733181E-004       7.64  <-- SCF
    177  -3.40006142E+002                   -4.88457561E-004       7.65  <-- SCF
    178  -3.40002242E+002                   -1.29986289E-003       7.67  <-- SCF
    179  -3.40026806E+002                    8.18798329E-003       7.68  <-- SCF
    180  -3.39975162E+002                   -1.72146200E-002       7.69  <-- SCF
    181  -3.40004116E+002                    9.65139448E-003       7.70  <-- SCF
    182  -3.40179083E+002                    5.83222862E-002       7.71  <-- SCF
    183  -3.39861469E+002                   -1.05871475E-001       7.72  <-- SCF
    184  -3.42218910E+002                    7.85813833E-001       7.74  <-- SCF
    185  -3.40689109E+002                   -5.09933824E-001       7.74  <-- SCF
    186  -3.40070775E+002                   -2.06111309E-001       7.76  <-- SCF
    187  -3.40024455E+002                   -1.54400506E-002       7.77  <-- SCF
    188  -3.40057135E+002                    1.08934812E-002       7.78  <-- SCF
    189  -3.40044149E+002                   -4.32852651E-003       7.79  <-- SCF
    190  -3.40170717E+002                    4.21890897E-002       7.80  <-- SCF
    191  -3.40181124E+002                    3.46905695E-003       7.81  <-- SCF
    192  -3.40261558E+002                    2.68113419E-002       7.82  <-- SCF
    193  -3.40183916E+002                   -2.58804718E-002       7.84  <-- SCF
    194  -3.40009998E+002                   -5.79728802E-002       7.85  <-- SCF
    195  -3.40041303E+002                    1.04350861E-002       7.86  <-- SCF
    196  -3.40013819E+002                   -9.16129524E-003       7.87  <-- SCF
    197  -3.40002560E+002                   -3.75308282E-003       7.88  <-- SCF
    198  -3.40024150E+002                    7.19669569E-003       7.90  <-- SCF
    199  -3.40026269E+002                    7.06268030E-004       7.91  <-- SCF
    200  -3.40043139E+002                    5.62329047E-003       7.92  <-- SCF
------------------------------------------------------------------------ <-- SCF
 *Warning* max. SCF cycles performed but system has not reached the groundstate.
  
Current total energy =  -340.0431387342     eV
(energy not corrected for finite basis set)
 
  ****************************************************************************
  Warning: electronic minimisation did not converge when finding ground state.
  ****************************************************************************
  Writing checkpoint file...

Writing analysis data to ./castep-pymuonsuite-test-data/muon-airss-out-castep/castep/Si2_6/Si2_6.castep_bin

Writing model to ./castep-pymuonsuite-test-data/muon-airss-out-castep/castep/Si2_6/Si2_6.check
  
Overall parallel efficiency rating: Terrible (26%)                              
  
Data was distributed by:-
G-vector (8-way); efficiency rating: Terrible (27%)                             
  
Parallel notes:
1) Calculation only took 7.9 s, so efficiency estimates may be inaccurate.      
