 +-------------------------------------------------+
 |                                                 |
 |      CCC   AA    SSS  TTTTT  EEEEE  PPPP        |
 |     C     A  A  S       T    E      P   P       |
 |     C     AAAA   SS     T    EEE    PPPP        |
 |     C     A  A     S    T    E      P           |
 |      CCC  A  A  SSS     T    EEEEE  P           |
 |                                                 |
 +-------------------------------------------------+
 |                                                 |
 | Welcome to Academic Release CASTEP version 19.1 |
 | Ab Initio Total Energy Program                  |
 |                                                 |
 | Authors:                                        |
 | M. Segall, M. Probert, C. Pickard, P. Hasnip,   |
 | S. Clark, K. Refson, J. R. Yates, M. Payne      |
 |                                                 |
 | Contributors:                                   |
 | P. Lindan, P. Haynes, J. White, V. Milman,      |
 | N. Govind, M. Gibson, P. Tulip, V. Cocula,      |
 | B. Montanari, D. Quigley, M. Glover,            |
 | L. Bernasconi, A. Perlov, M. Plummer,           |
 | E. McNellis, J. Meyer, J. Gale, D. Jochym       |
 | J. Aarons, B. Walker, R. Gillen, D. Jones       |
 | T. Green, I. J. Bush, C. J. Armstrong,          |
 | E. J. Higgins, E. L. Brown, M. S. McFly,        |
 | J. Wilkins, B-C. Shih, P. J. P. Byrne           |
 |                                                 |
 | Copyright (c) 2000 - 2018                       |
 |                                                 |
 |     Distributed under the terms of an           |
 |     Agreement between the United Kingdom        |
 |     Car-Parrinello (UKCP) Consortium,           |
 |     Daresbury Laboratory and Accelrys, Inc.     |
 |                                                 |
 | Please cite                                     |
 |                                                 |
 |     "First principles methods using CASTEP"     |
 |                                                 |
 |         Zeitschrift fuer Kristallographie       |
 |           220(5-6) pp. 567-570 (2005)           |
 |                                                 |
 | S. J. Clark, M. D. Segall, C. J. Pickard,       |
 | P. J. Hasnip, M. J. Probert, K. Refson,         |
 | M. C. Payne                                     |
 |                                                 |
 |       in all publications arising from          |
 |              your use of CASTEP                 |
 |                                                 |
 +-------------------------------------------------+
 |                                                 |
 |              http://www.castep.org              |
 |                                                 |
 +-------------------------------------------------+



 Compiled for linux_x86_64_gfortran5.0 on Wed, 23 May 2018 13:56:25 +0100
 from code version 74912bb83cf5  Thu, 17 May 2018 22:22:05 +0100
 Compiler: GNU Fortran 5.4.0; Optimisation: fast
 MATHLIBS: default (LAPACK version 3.6.0)
 FFT Lib : default
 Fundamental constants values: CODATA 2014

 Run started: Thu, 06 Jun 2019 15:48:22 +0100

 Atomic calculation performed for Si: 1s2 2s2 2p6 3s2 3p2

 Converged in 55 iterations to an ae energy of -7859.183 eV

   ============================================================
   | Pseudopotential Report - Date of generation  6-06-2019   |
   ------------------------------------------------------------
   | Element: Si Ionic charge:  4.00 Level of theory: LDA     |
   | Atomic Solver: Koelling-Harmon                           |
   |                                                          |
   |               Reference Electronic Structure             |
   |         Orbital         Occupation         Energy        |
   |            3s              2.000           -0.400        |
   |            3p              2.000           -0.153        |
   |                                                          |
   |                 Pseudopotential Definition               |
   |        Beta     l      e      Rc     scheme   norm       |
   |          1      0   -0.400   1.797     qc      0         |
   |          2      0    0.250   1.797     qc      0         |
   |          3      1   -0.153   1.797     qc      0         |
   |          4      1    0.250   1.797     qc      0         |
   |          5      2    0.000   1.797     qc      0         |
   |          6      2    0.250   1.797     qc      0         |
   |         loc     3    0.000   1.797     pn      0         |
   |                                                          |
   | Augmentation charge Rinner = 1.255                       |
   | Partial core correction Rc = 1.255                       |
   ------------------------------------------------------------
   | "3|1.8|5|6|7|30:31:32"                                   |
   ------------------------------------------------------------
   |      Author: Chris J. Pickard, Cambridge University      |
   ============================================================

 Pseudo atomic calculation performed for Si 3s2 3p2

 Converged in 21 iterations to a total energy of -162.9265 eV

 Calculation not parallelised.

 ************************************ Title ************************************


 ***************************** General Parameters ******************************

 output verbosity                               : normal  (1)
 write checkpoint data to                       : Si2.check
 type of calculation                            : single point energy
 stress calculation                             : off
 density difference calculation                 : off
 electron localisation func (ELF) calculation   : off
 Hirshfeld analysis                             : off
 unlimited duration calculation
 timing information                             : on
 memory usage estimate                          : on
 write extra output files                       : on
 write final potential to formatted file        : off
 write final density to formatted file          : on
 write BibTeX reference list                    : on
 write OTFG pseudopotential files               : on
 write electrostatic potential file             : on
 write bands file                               : on
 checkpoint writing                             : both castep_bin and check files

 output         length unit                     : A
 output           mass unit                     : amu
 output           time unit                     : ps
 output         charge unit                     : e
 output           spin unit                     : hbar/2
 output         energy unit                     : eV
 output          force unit                     : eV/A
 output       velocity unit                     : A/ps
 output       pressure unit                     : GPa
 output     inv_length unit                     : 1/A
 output      frequency unit                     : cm-1
 output force constant unit                     : eV/A**2
 output         volume unit                     : A**3
 output   IR intensity unit                     : (D/A)**2/amu
 output         dipole unit                     : D
 output         efield unit                     : eV/A/e
 output        entropy unit                     : J/mol/K

 wavefunctions paging                           : none
 random number generator seed                   : randomised (154822363)
 data distribution                              : optimal for this architecture
 optimization strategy                          : maximize speed(+++)

 *********************** Exchange-Correlation Parameters ***********************

 using functional                               : Local Density Approximation
 relativistic treatment                         : Koelling-Harmon
 DFT+D: Semi-empirical dispersion correction    : off

 ************************* Pseudopotential Parameters **************************

 pseudopotential representation                 : reciprocal space
 <beta|phi> representation                      : reciprocal space
 spin-orbit coupling                            : off

 **************************** Basis Set Parameters *****************************

 plane wave basis set cut-off                   :   150.0000   eV
 size of standard grid                          :     2.0000
 size of   fine   gmax                          :    12.5491   1/A
 finite basis set correction                    : none

 **************************** Electronic Parameters ****************************

 number of  electrons                           :  8.000
 net charge of system                           :  0.000
 treating system as non-spin-polarized
 number of bands                                :          4

 ********************* Electronic Minimization Parameters **********************

 Method: Treating system as non-metallic,
         and number of  SD  steps               :          1
         and number of  CG  steps               :          4

 total energy / atom convergence tol.           : 0.1000E-07   eV
 eigen-energy convergence tolerance             : 0.5000E-08   eV
 max force / atom convergence tol.              : ignored
 convergence tolerance window                   :          3   cycles
 max. number of SCF cycles                      :         30
 periodic dipole correction                     : NONE

 ************************** Density Mixing Parameters **************************

 density-mixing scheme                          : Broyden
 max. length of mixing history                  :         20
 charge density mixing amplitude                : 0.8000
 cut-off energy for mixing                      :  150.0       eV

 *********************** Population Analysis Parameters ************************

 Population analysis with cutoff                :  3.000       A
 Population analysis output                     : summary and pdos components

 *******************************************************************************


                           -------------------------------
                                      Unit Cell
                           -------------------------------
        Real Lattice(A)                      Reciprocal Lattice(1/A)
     2.6954645     2.6954645     0.0000000        1.165510677   1.165510677  -1.165510677
     2.6954645     0.0000000     2.6954645        1.165510677  -1.165510677   1.165510677
     0.0000000     2.6954645     2.6954645       -1.165510677   1.165510677   1.165510677

                       Lattice parameters(A)       Cell Angles
                    a =      3.811962          alpha =   60.000000
                    b =      3.811962          beta  =   60.000000
                    c =      3.811962          gamma =   60.000000

                       Current cell volume =            39.167950       A**3
                                   density =             1.434106   AMU/A**3
                                           =             2.381389     g/cm^3

                           -------------------------------
                                     Cell Contents
                           -------------------------------
                         Total number of ions in cell =    2
                      Total number of species in cell =    1
                        Max number of any one species =    2

            xxxxxxxxxxxxxxxxxxxxxxxxxxxxxxxxxxxxxxxxxxxxxxxxxxxxxxxxxxxx
            x  Element    Atom        Fractional coordinates of atoms  x
            x            Number           u          v          w      x
            x----------------------------------------------------------x
            x  Si           1         0.000000   0.000000   0.000000   x
            x  Si           2         0.250000   0.250000   0.250000   x
            xxxxxxxxxxxxxxxxxxxxxxxxxxxxxxxxxxxxxxxxxxxxxxxxxxxxxxxxxxxx


                         No user defined ionic velocities

                           -------------------------------
                                   Details of Species
                           -------------------------------

                               Mass of species in AMU
                                    Si   28.0855000

                          Electric Quadrupole Moment (Barn)
                                    Si    1.0000000 No Isotope Defined

                          Files used for pseudopotentials:
                                    Si 3|1.8|5|6|7|30:31:32

                           -------------------------------
                              k-Points For BZ Sampling
                           -------------------------------
                       Number of kpoints used =             2

                           -------------------------------
                               Symmetry and Constraints
                           -------------------------------

                      Maximum deviation from symmetry =  0.00000         ANG

                      Number of symmetry operations   =          48
                      Number of ionic constraints     =           3
                      Point group of crystal =    32: Oh, m-3m, 4/m -3 2/m
                      Space group of crystal =   227: Fd-3m, F 4d 2 3 -1d

             Set iprint > 1 for details on symmetry rotations/translations

                         Centre of mass is constrained
             Set iprint > 1 for details of linear ionic constraints

                         Number of cell constraints= 5
                         Cell constraints are:  1 1 1 0 0 0

                         External pressure/stress (GPa)
                          0.00000   0.00000   0.00000
                                    0.00000   0.00000
                                              0.00000

+---------------- MEMORY AND SCRATCH DISK ESTIMATES PER PROCESS --------------+
|                                                     Memory          Disk    |
| Baseline code, static data and system overhead       41.0 MB         0.0 MB |
| BLAS internal memory storage                          0.0 MB         0.0 MB |
| Model and support data                               21.2 MB         0.0 MB |
| Electronic energy minimisation requirements           0.9 MB         0.0 MB |
| Force calculation requirements                        0.6 MB         0.0 MB |
|                                               ----------------------------- |
| Approx. total storage required per process           63.0 MB         0.0 MB |
|                                                                             |
| Requirements will fluctuate during execution and may exceed these estimates |
+-----------------------------------------------------------------------------+
Calculating total energy with cut-off of  150.000 eV.
------------------------------------------------------------------------ <-- SCF
SCF loop      Energy                           Energy gain       Timer   <-- SCF
                                               per atom          (sec)   <-- SCF
------------------------------------------------------------------------ <-- SCF
Initial  -9.16183835E+000                                          6.48  <-- SCF
      1  -3.02148156E+002                    1.46493159E+002       6.55  <-- SCF
      2  -3.37741486E+002                    1.77966648E+001       6.56  <-- SCF
      3  -3.37952128E+002                    1.05321129E-001       6.57  <-- SCF
      4  -3.37694807E+002                   -1.28660436E-001       6.62  <-- SCF
      5  -3.37677646E+002                   -8.58068224E-003       6.67  <-- SCF
      6  -3.37678098E+002                    2.26089579E-004       6.72  <-- SCF
      7  -3.37678147E+002                    2.43157142E-005       6.78  <-- SCF
      8  -3.37678149E+002                    1.23558032E-006       6.82  <-- SCF
      9  -3.37678149E+002                   -5.79375144E-008       6.87  <-- SCF
     10  -3.37678149E+002                    1.27305987E-008       6.91  <-- SCF
     11  -3.37678149E+002                   -3.80311718E-009       6.95  <-- SCF
     12  -3.37678149E+002                    1.88263460E-009       6.99  <-- SCF
------------------------------------------------------------------------ <-- SCF

Final energy =  -337.6781491429     eV
(energy not corrected for finite basis set)


Writing analysis data to Si2.castep_bin

Writing model to Si2.check

 ******************** Symmetrised Forces ********************
 *                                                          *
 *               Cartesian components (eV/A)                *
 * -------------------------------------------------------- *
 *                         x            y            z      *
 *                                                          *
 * Si              1      0.00000      0.00000      0.00000 *
 * Si              2     -0.00000      0.00000     -0.00000 *
 *                                                          *
 ************************************************************

 Pseudo atomic calculation performed for Si 3s2 3p2

 Converged in 21 iterations to a total energy of -162.9265 eV

Charge spilling parameter for spin component 1 = 0.81%

            Orbital Populations
     Ion    Atom   Orbital             Charge
  -------------------------------------------
     Si     1      S                    1.337
     Si     1      Px                   0.812
     Si     1      Py                   0.926
     Si     1      Pz                   0.926
     Si     2      S                    1.336
     Si     2      Px                   0.812
     Si     2      Py                   0.926
     Si     2      Pz                   0.926
  -------------------------------------------
                           Total:       8.000
  -------------------------------------------

     Atomic Populations (Mulliken)
     -----------------------------
Species          Ion     s      p      d      f     Total  Charge (e)
=====================================================================
  Si              1     1.34   2.66   0.00   0.00   4.00     0.00
  Si              2     1.34   2.66   0.00   0.00   4.00     0.00
=====================================================================

                 Bond                   Population      Length (A)
======================================================================
              Si 1 -- Si 2                   3.03        2.33434
======================================================================


Writing analysis data to Si2.castep_bin

Writing model to Si2.check

 A BibTeX formatted list of references used in this run has been written to
 Si2.bib

Initialisation time =      5.44 s
Calculation time    =      1.77 s
Finalisation time   =      0.04 s
Total time          =      7.26 s
Peak Memory Use     = 304772 kB
