 +-------------------------------------------------+
 |                                                 |
 |      CCC   AA    SSS  TTTTT  EEEEE  PPPP        |
 |     C     A  A  S       T    E      P   P       |
 |     C     AAAA   SS     T    EEE    PPPP        |
 |     C     A  A     S    T    E      P           |
 |      CCC  A  A  SSS     T    EEEEE  P           |
 |                                                 |
 +-------------------------------------------------+
 |                                                 |
 | Welcome to Academic Release CASTEP version 18.1 |          
 | Ab Initio Total Energy Program                  |
 |                                                 |
 | Authors:                                        |
 | M. Segall, M. Probert, C. Pickard, P. Hasnip,   |
 | S. Clark, K. Refson, J. R. Yates, M. Payne      |
 |                                                 |
 | Contributors:                                   |
 | P. Lindan, P. Haynes, J. White, V. Milman,      |
 | N. Govind, M. Gibson, P. Tulip, V. Cocula,      |
 | B. Montanari, D. Quigley, M. Glover,            |
 | L. Bernasconi, A. Perlov, M. Plummer,           |
 | E. McNellis, J. Meyer, J. Gale, D. Jochym       |
 | J. Aarons, B. Walker, R. Gillen, D. Jones       |
 | T. Green, I. J. Bush, C. J. Armstrong,          |
 | E. J. Higgins, E. L. Brown, M. S. McFly,        |
 | J. Wilkins, B-C. Shih, P. J. P. Byrne           |
 |                                                 |
 | Copyright (c) 2000 - 2017                       |
 |                                                 |
 |     Distributed under the terms of an           |
 |     Agreement between the United Kingdom        |
 |     Car-Parrinello (UKCP) Consortium,           |
 |     Daresbury Laboratory and Accelrys, Inc.     |
 |                                                 |
 | Please cite                                     |
 |                                                 |
 |     "First principles methods using CASTEP"     |
 |                                                 |
 |         Zeitschrift fuer Kristallographie       |
 |           220(5-6) pp. 567-570 (2005)           |
 |                                                 |
 | S. J. Clark, M. D. Segall, C. J. Pickard,       |
 | P. J. Hasnip, M. J. Probert, K. Refson,         |
 | M. C. Payne                                     |
 |                                                 |
 |       in all publications arising from          |
 |              your use of CASTEP                 |
 |                                                 |
 +-------------------------------------------------+
 
 
 Compiled for linux_x86_64_ifort17 on Wed, 28 Feb 2018 17:00:19 +0000
 from code version baee3ec33e17+  Mon, 11 Dec 2017 11:05:17 +0000
 Compiler: Intel Fortran 17.0.2.174; Optimisation: fast
 MATHLIBS: Intel MKL(2017.0.2) (LAPACK version 3.7.0)
 FFT Lib : mkl
 Fundamental constants values: CODATA 2014
 
 Run started: Tue, 28 Feb 2023 13:19:02 +0000
 +-------------------------------------------------+
 |                                                 |
 |      CCC   AA    SSS  TTTTT  EEEEE  PPPP        |
 |     C     A  A  S       T    E      P   P       |
 |     C     AAAA   SS     T    EEE    PPPP        |
 |     C     A  A     S    T    E      P           |
 |      CCC  A  A  SSS     T    EEEEE  P           |
 |                                                 |
 +-------------------------------------------------+
 |                                                 |
 | Welcome to Academic Release CASTEP version 18.1 |          
 | Ab Initio Total Energy Program                  |
 |                                                 |
 | Authors:                                        |
 | M. Segall, M. Probert, C. Pickard, P. Hasnip,   |
 | S. Clark, K. Refson, J. R. Yates, M. Payne      |
 |                                                 |
 | Contributors:                                   |
 | P. Lindan, P. Haynes, J. White, V. Milman,      |
 | N. Govind, M. Gibson, P. Tulip, V. Cocula,      |
 | B. Montanari, D. Quigley, M. Glover,            |
 | L. Bernasconi, A. Perlov, M. Plummer,           |
 | E. McNellis, J. Meyer, J. Gale, D. Jochym       |
 | J. Aarons, B. Walker, R. Gillen, D. Jones       |
 | T. Green, I. J. Bush, C. J. Armstrong,          |
 | E. J. Higgins, E. L. Brown, M. S. McFly,        |
 | J. Wilkins, B-C. Shih, P. J. P. Byrne           |
 |                                                 |
 | Copyright (c) 2000 - 2017                       |
 |                                                 |
 |     Distributed under the terms of an           |
 |     Agreement between the United Kingdom        |
 |     Car-Parrinello (UKCP) Consortium,           |
 |     Daresbury Laboratory and Accelrys, Inc.     |
 |                                                 |
 | Please cite                                     |
 |                                                 |
 |     "First principles methods using CASTEP"     |
 |                                                 |
 |         Zeitschrift fuer Kristallographie       |
 |           220(5-6) pp. 567-570 (2005)           |
 |                                                 |
 | S. J. Clark, M. D. Segall, C. J. Pickard,       |
 | P. J. Hasnip, M. J. Probert, K. Refson,         |
 | M. C. Payne                                     |
 |                                                 |
 |       in all publications arising from          |
 |              your use of CASTEP                 |
 |                                                 |
 +-------------------------------------------------+
 
 
 Compiled for linux_x86_64_ifort17 on Wed, 28 Feb 2018 17:00:19 +0000
 from code version baee3ec33e17+  Mon, 11 Dec 2017 11:05:17 +0000
 Compiler: Intel Fortran 17.0.2.174; Optimisation: fast
 MATHLIBS: Intel MKL(2017.0.2) (LAPACK version 3.7.0)
 FFT Lib : mkl
 Fundamental constants values: CODATA 2014
 
 Run started: Tue, 28 Feb 2023 13:57:44 +0000
 
 Atomic calculation performed for Cu: 1s2 2s2 2p6 3s2 3p6 3d10 4s1
 
 Converged in 144 iterations to an ae energy of -45030.712 eV
 
   ============================================================                
   | Pseudopotential Report - Date of generation 28-02-2023   |                
   ------------------------------------------------------------                
   | Element: Cu Ionic charge: 11.00 Level of theory: PBE     |                
   | Atomic Solver: Koelling-Harmon                           |                
   |                                                          |                
   |               Reference Electronic Structure             |                
   |         Orbital         Occupation         Energy        |                
   |            3d             10.000           -0.185        |                
   |            4s              1.000           -0.169        |                
   |                                                          |                
   |                 Pseudopotential Definition               |                
   |        Beta     l      e      Rc     scheme   norm       |                
   |          1      0   -0.169   1.996     qc      0         |                
   |          2      0    0.250   1.996     qc      0         |                
   |          3      1    0.000   1.996     qc      0         |                
   |          4      1    0.250   1.996     qc      0         |                
   |          5      2   -0.185   1.996     qc      0         |                
   |          6      2    0.250   1.996     qc      0         |                
   |         loc     3    0.000   2.206     pn      0         |                
   |                                                          |                
   | Augmentation charge Rinner = 0.999                       |                
   | Partial core correction Rc = 0.999                       |                
   ------------------------------------------------------------                
   | "3|2.2|2.0|1.0|10|12|13|40:41:32(qc=6)"                  |                
   ------------------------------------------------------------                
   |      Author: Chris J. Pickard, Cambridge University      |                
   ============================================================                
 
 Atomic calculation performed for As: 1s2 2s2 2p6 3s2 3p6 3d10 4s2 4p3
 
 Converged in 83 iterations to an ae energy of -61519.639 eV
 
   ============================================================                
   | Pseudopotential Report - Date of generation 28-02-2023   |                
   ------------------------------------------------------------                
   | Element: As Ionic charge: 15.00 Level of theory: PBE     |                
   | Atomic Solver: Koelling-Harmon                           |                
   |                                                          |                
   |               Reference Electronic Structure             |                
   |         Orbital         Occupation         Energy        |                
   |            3d             10.000           -1.494        |                
   |            4s              2.000           -0.533        |                
   |            4p              3.000           -0.191        |                
   |                                                          |                
   |                 Pseudopotential Definition               |                
   |        Beta     l      e      Rc     scheme   norm       |                
   |          1      0   -0.533   2.004     qc      0         |                
   |          2      0    0.250   2.004     qc      0         |                
   |          3      1   -0.191   2.004     qc      0         |                
   |          4      1    0.250   2.004     qc      0         |                
   |          5      2   -1.494   2.004     qc      0         |                
   |          6      2    0.250   2.004     qc      0         |                
   |         loc     3    0.000   2.004     pn      0         |                
   |                                                          |                
   | Augmentation charge Rinner = 1.400                       |                
   | Partial core correction Rc = 1.400                       |                
   ------------------------------------------------------------                
   | "3|2.0|10|12|13|40:41:32(qc=6)"                          |                
   ------------------------------------------------------------                
   |      Author: Chris J. Pickard, Cambridge University      |                
   ============================================================                
 
 Atomic calculation performed for Yb:
 1s2 2s2 2p6 3s2 3p6 3d10 4s2 4p6 4d10 4f13 5s2 5p6 6s2
 
 Converged in 130 iterations to an ae energy of -382575.340 eV
 
   ============================================================                
   | Pseudopotential Report - Date of generation 28-02-2023   |                
   ------------------------------------------------------------                
   | Element: Yb Ionic charge: 24.00 Level of theory: PBE     |                
   | Atomic Solver: Koelling-Harmon                           |                
   |                                                          |                
   |               Reference Electronic Structure             |                
   |         Orbital         Occupation         Energy        |                
   |            5s              2.000           -2.508        |                
   |            5p              6.000           -1.461        |                
   |            4f             13.000           -0.678        |                
   |            6s              2.000           -0.402        |                
   |                                                          |                
   |                 Pseudopotential Definition               |                
   |        Beta     l      e      Rc     scheme   norm       |                
   |          1      0   -2.508   2.103     qc      0         |                
   |          2      0   -0.402   2.103     qc      0         |                
   |          3      0    0.250   2.103     qc      0         |                
   |          4      1   -1.461   2.103     qc      0         |                
   |          5      1    0.250   2.103     qc      0         |                
   |          6      3   -0.678   2.103     qc      0         |                
   |          7      3    0.250   2.103     qc      0         |                
   |         loc     2    0.000   2.103     pn      0         |                
   |                                                          |                
   | Augmentation charge Rinner = 1.469                       |                
   | Partial core correction Rc = 1.469                       |                
   ------------------------------------------------------------                
   | "2|2.1|10|12|13|50U:60:51:43{4f13}(qc=6)"                |                
   ------------------------------------------------------------                
   |      Author: Chris J. Pickard, Cambridge University      |                
   ============================================================                
 
 Pseudo atomic calculation performed for Cu 3d10 4s1
 
 Converged in 67 iterations to a total energy of -1676.9944 eV
 
 
 Pseudo atomic calculation performed for As 3d10 4s2 4p3
 
 Converged in 31 iterations to a total energy of -2957.8543 eV
 
 
 Pseudo atomic calculation performed for Yb 4f13 5s2 5p6 6s2
 
 Converged in 41 iterations to a total energy of -6377.4802 eV
 
 Calculation not parallelised.

 ************************************ Title ************************************
 

 ***************************** General Parameters ******************************
  
 output verbosity                               : normal  (1)
 write checkpoint data to                       : YbCuAs2.check
 type of calculation                            : geometry optimization
 stress calculation                             : off
 density difference calculation                 : off
 electron localisation func (ELF) calculation   : off
 Hirshfeld analysis                             : off
 unlimited duration calculation
 timing information                             : on
 memory usage estimate                          : on
 write extra output files                       : on
 write final potential to formatted file        : off
 write final density to formatted file          : off
 write structure in CELL formatted file         : on
 write BibTeX reference list                    : on
 write OTFG pseudopotential files               : on
 write electrostatic potential file             : on
 write bands file                               : on
 checkpoint writing                             : write castep_bin only
  
 output         length unit                     : A
 output           mass unit                     : amu
 output           time unit                     : ps
 output         charge unit                     : e
 output           spin unit                     : hbar/2
 output         energy unit                     : eV
 output          force unit                     : eV/A
 output       velocity unit                     : A/ps
 output       pressure unit                     : GPa
 output     inv_length unit                     : 1/A
 output      frequency unit                     : cm-1
 output force constant unit                     : eV/A**2
 output         volume unit                     : A**3
 output   IR intensity unit                     : (D/A)**2/amu
 output         dipole unit                     : D
 output         efield unit                     : eV/A/e
 output        entropy unit                     : J/mol/K
  
 wavefunctions paging                           : none
 random number generator seed                   : randomised (135744748)
 data distribution                              : optimal for this architecture
 optimization strategy                          : maximize speed(+++)

 *********************** Exchange-Correlation Parameters ***********************
  
 using functional                               : Perdew Burke Ernzerhof
 relativistic treatment                         : Koelling-Harmon
 DFT+D: Semi-empirical dispersion correction    : off

 ************************* Pseudopotential Parameters **************************
  
 pseudopotential representation                 : reciprocal space
 <beta|phi> representation                      : reciprocal space
 spin-orbit coupling                            : off

 **************************** Basis Set Parameters *****************************
  
 plane wave basis set cut-off                   :   850.0000   eV
 size of standard grid                          :     1.7500
 size of   fine   gmax                          :    26.1388   1/A
 finite basis set correction                    : none

 **************************** Electronic Parameters ****************************
  
 number of  electrons                           :  130.0    
 net charge of system                           :  0.000    
 treating system as non-spin-polarized
 number of bands                                :         78

 ********************* Electronic Minimization Parameters **********************
  
 Method: Treating system as metallic with density mixing treatment of electrons,
         and number of  SD  steps               :          1
         and number of  CG  steps               :          4
  
 total energy / atom convergence tol.           : 0.1000E-07   eV
 eigen-energy convergence tolerance             : 0.1231E-08   eV
 max force / atom convergence tol.              : ignored
 convergence tolerance window                   :          3   cycles
 max. number of SCF cycles                      :        200
 number of fixed-spin iterations                :         10
 smearing scheme                                : Gaussian
 smearing width                                 : 0.2000       eV
 Fermi energy convergence tolerance             : 0.2721E-13   eV
 periodic dipole correction                     : NONE

 ************************** Density Mixing Parameters **************************
  
 density-mixing scheme                          : Pulay
 max. length of mixing history                  :         20
 charge density mixing amplitude                : 0.8000    
 cut-off energy for mixing                      :  850.0       eV

 *********************** Population Analysis Parameters ************************
  
 Population analysis with cutoff                :  3.000       A
 Population analysis output                     : summary and pdos components

 ********************** Geometry Optimization Parameters ***********************
  
 optimization method                            : LBFGS
 max. no. of LBFGS updates                      : unbounded
 variable cell method                           : fixed basis quality
 max. number of steps                           :        200
 estimated bulk modulus                         :  500.0       GPa
 estimated <frequency>                          :  1668.       cm-1
 geom line minimiser                            : on
 with line minimiser tolerance                  :     0.4000
 total energy convergence tolerance             : 0.2000E-04   eV/atom
        max ionic |force| tolerance             : 0.5000E-01   eV/A
 max ionic |displacement| tolerance             : 0.1000E-02   A
   max |stress component| tolerance             : 0.1000       GPa
 convergence tolerance window                   :          2   steps
 backup results every                           :       3600   seconds
 write geom trajectory file                     : on

 *******************************************************************************
  
 
                           -------------------------------
                                      Unit Cell
                           -------------------------------
        Real Lattice(A)                      Reciprocal Lattice(1/A)
     3.8420000     0.0000000     0.0000000        1.635394406   0.000000000   0.000000000
     0.0000000     3.8420000     0.0000000        0.000000000   1.635394406   0.000000000
     0.0000000     0.0000000     9.7430000        0.000000000   0.000000000   0.644892262
 
                       Lattice parameters(A)       Cell Angles
                    a =      3.842000          alpha =   90.000000
                    b =      3.842000          beta  =   90.000000
                    c =      9.743000          gamma =   90.000000
 
                       Current cell volume =           143.816072       A**3
                                   density =             5.373936   AMU/A**3
                                           =             8.923631     g/cm^3
 
                           -------------------------------
                                     Cell Contents
                           -------------------------------
                         Total number of ions in cell =    8
                      Total number of species in cell =    3
                        Max number of any one species =    4
 
            xxxxxxxxxxxxxxxxxxxxxxxxxxxxxxxxxxxxxxxxxxxxxxxxxxxxxxxxxxxx
            x  Element    Atom        Fractional coordinates of atoms  x
            x            Number           u          v          w      x
            x----------------------------------------------------------x
            x  Cu           1         0.750000   0.250000   0.500000   x 
            x  Cu           2         0.250000   0.750000   0.500000   x 
            x  As           1         0.750000   0.250000   0.000000   x 
            x  As           2         0.250000   0.750000   0.000000   x 
            x  As           3         0.750000   0.750000   0.334840   x 
            x  As           4         0.250000   0.250000   0.665160   x 
            x  Yb           1         0.250000   0.250000   0.236240   x 
            x  Yb           2         0.750000   0.750000   0.763760   x 
            xxxxxxxxxxxxxxxxxxxxxxxxxxxxxxxxxxxxxxxxxxxxxxxxxxxxxxxxxxxx
 
 
                         No user defined ionic velocities
 
                           -------------------------------
                                   Details of Species
                           -------------------------------
 
                               Mass of species in AMU
                                    Cu   63.5460000
                                    As   74.9216000
                                    Yb  173.0400000
 
                          Electric Quadrupole Moment (Barn)
                                    Cu   -0.2200000 Isotope 63
                                    As    0.3140000 Isotope 75
                                    Yb    2.8000000 Isotope173
 
                          Files used for pseudopotentials:
                                    Cu 3|2.2|2.0|1.0|10|12|13|40:41:32(qc=6)
                                    As 3|2.0|10|12|13|40:41:32(qc=6)
                                    Yb 2|2.1|10|12|13|50U:60:51:43{4f13}(qc=6)
 
                           -------------------------------
                              k-Points For BZ Sampling
                           -------------------------------
                       MP grid size for SCF calculation is 21 21  9
                            with an offset of   0.000  0.000  0.000
                       Number of kpoints used =           330
 
                           -------------------------------
                               Symmetry and Constraints
                           -------------------------------
 
                      Maximum deviation from symmetry =  0.00000         ANG
 
                      Number of symmetry operations   =          16
                      Number of ionic constraints     =           3
                      Point group of crystal =    15: D4h, 4/mmm, 4/m 2/m 2/m
                      Space group of crystal =   129: P4/nmm, P 4ab 2ab -1ab
 
             Set iprint > 1 for details on symmetry rotations/translations
 
                         Centre of mass is constrained
             Set iprint > 1 for details of linear ionic constraints
 
                         Number of cell constraints= 6
                         Cell constraints are:  0 0 0 0 0 0
 
                         External pressure/stress (GPa)
                          0.00000   0.00000   0.00000
                                    0.00000   0.00000
                                              0.00000
  
+---------------- MEMORY AND SCRATCH DISK ESTIMATES PER PROCESS --------------+
|                                                     Memory          Disk    |
| Baseline code, static data and system overhead      104.0 MB         0.0 MB |
| BLAS internal memory storage                          0.0 MB         0.0 MB |
| Model and support data                             4182.3 MB         0.0 MB |
| Electronic energy minimisation requirements        6582.5 MB         0.0 MB |
| Force calculation requirements                       13.4 MB         0.0 MB |
|                                               ----------------------------- |
| Approx. total storage required per process        10868.8 MB         0.0 MB |
|                                                                             |
| Requirements will fluctuate during execution and may exceed these estimates |
+-----------------------------------------------------------------------------+
Calculating total energy with cut-off of  850.000 eV.
------------------------------------------------------------------------ <-- SCF
SCF loop      Energy           Fermi           Energy gain       Timer   <-- SCF
                               energy          per atom          (sec)   <-- SCF
------------------------------------------------------------------------ <-- SCF
Initial  -2.81702316E+004  0.00000000E+000                        55.96  <-- SCF
      1  -2.74973656E+004  1.04992863E+001  -8.41082517E+001    1023.55  <-- SCF
      2  -2.79906953E+004  8.74137494E+000   6.16662139E+001    1655.60  <-- SCF
      3  -2.80169977E+004  8.59363850E+000   3.28780666E+000    2364.72  <-- SCF
      4  -2.80175648E+004  8.58108570E+000   7.08797912E-002    3086.26  <-- SCF
      5  -2.83570556E+004  1.38830967E+001   4.24363573E+001    3917.75  <-- SCF
      6  -2.83606235E+004  1.38291535E+001   4.45984715E-001    4683.14  <-- SCF
      7  -2.81137139E+004  6.28399150E+000  -3.08637031E+001    5705.52  <-- SCF
 +-------------------------------------------------+
 |                                                 |
 |      CCC   AA    SSS  TTTTT  EEEEE  PPPP        |
 |     C     A  A  S       T    E      P   P       |
 |     C     AAAA   SS     T    EEE    PPPP        |
 |     C     A  A     S    T    E      P           |
 |      CCC  A  A  SSS     T    EEEEE  P           |
 |                                                 |
 +-------------------------------------------------+
 |                                                 |
 | Welcome to Academic Release CASTEP version 18.1 |          
 | Ab Initio Total Energy Program                  |
 |                                                 |
 | Authors:                                        |
 | M. Segall, M. Probert, C. Pickard, P. Hasnip,   |
 | S. Clark, K. Refson, J. R. Yates, M. Payne      |
 |                                                 |
 | Contributors:                                   |
 | P. Lindan, P. Haynes, J. White, V. Milman,      |
 | N. Govind, M. Gibson, P. Tulip, V. Cocula,      |
 | B. Montanari, D. Quigley, M. Glover,            |
 | L. Bernasconi, A. Perlov, M. Plummer,           |
 | E. McNellis, J. Meyer, J. Gale, D. Jochym       |
 | J. Aarons, B. Walker, R. Gillen, D. Jones       |
 | T. Green, I. J. Bush, C. J. Armstrong,          |
 | E. J. Higgins, E. L. Brown, M. S. McFly,        |
 | J. Wilkins, B-C. Shih, P. J. P. Byrne           |
 |                                                 |
 | Copyright (c) 2000 - 2017                       |
 |                                                 |
 |     Distributed under the terms of an           |
 |     Agreement between the United Kingdom        |
 |     Car-Parrinello (UKCP) Consortium,           |
 |     Daresbury Laboratory and Accelrys, Inc.     |
 |                                                 |
 | Please cite                                     |
 |                                                 |
 |     "First principles methods using CASTEP"     |
 |                                                 |
 |         Zeitschrift fuer Kristallographie       |
 |           220(5-6) pp. 567-570 (2005)           |
 |                                                 |
 | S. J. Clark, M. D. Segall, C. J. Pickard,       |
 | P. J. Hasnip, M. J. Probert, K. Refson,         |
 | M. C. Payne                                     |
 |                                                 |
 |       in all publications arising from          |
 |              your use of CASTEP                 |
 |                                                 |
 +-------------------------------------------------+
 
 
 Compiled for linux_x86_64_ifort17 on Wed, 28 Feb 2018 17:00:19 +0000
 from code version baee3ec33e17+  Mon, 11 Dec 2017 11:05:17 +0000
 Compiler: Intel Fortran 17.0.2.174; Optimisation: fast
 MATHLIBS: Intel MKL(2017.0.2) (LAPACK version 3.7.0)
 FFT Lib : mkl
 Fundamental constants values: CODATA 2014
 
 Run started: Tue, 28 Feb 2023 15:39:59 +0000
 
 Atomic calculation performed for Cu: 1s2 2s2 2p6 3s2 3p6 3d10 4s1
 
 Converged in 144 iterations to an ae energy of -45030.712 eV
 
   ============================================================                
   | Pseudopotential Report - Date of generation 28-02-2023   |                
   ------------------------------------------------------------                
   | Element: Cu Ionic charge: 11.00 Level of theory: PBE     |                
   | Atomic Solver: Koelling-Harmon                           |                
   |                                                          |                
   |               Reference Electronic Structure             |                
   |         Orbital         Occupation         Energy        |                
   |            3d             10.000           -0.185        |                
   |            4s              1.000           -0.169        |                
   |                                                          |                
   |                 Pseudopotential Definition               |                
   |        Beta     l      e      Rc     scheme   norm       |                
   |          1      0   -0.169   1.996     qc      0         |                
   |          2      0    0.250   1.996     qc      0         |                
   |          3      1    0.000   1.996     qc      0         |                
   |          4      1    0.250   1.996     qc      0         |                
   |          5      2   -0.185   1.996     qc      0         |                
   |          6      2    0.250   1.996     qc      0         |                
   |         loc     3    0.000   2.206     pn      0         |                
   |                                                          |                
   | Augmentation charge Rinner = 0.999                       |                
   | Partial core correction Rc = 0.999                       |                
   ------------------------------------------------------------                
   | "3|2.2|2.0|1.0|10|12|13|40:41:32(qc=6)"                  |                
   ------------------------------------------------------------                
   |      Author: Chris J. Pickard, Cambridge University      |                
   ============================================================                
 
 Atomic calculation performed for As: 1s2 2s2 2p6 3s2 3p6 3d10 4s2 4p3
 
 Converged in 83 iterations to an ae energy of -61519.639 eV
 
   ============================================================                
   | Pseudopotential Report - Date of generation 28-02-2023   |                
   ------------------------------------------------------------                
   | Element: As Ionic charge: 15.00 Level of theory: PBE     |                
   | Atomic Solver: Koelling-Harmon                           |                
   |                                                          |                
   |               Reference Electronic Structure             |                
   |         Orbital         Occupation         Energy        |                
   |            3d             10.000           -1.494        |                
   |            4s              2.000           -0.533        |                
   |            4p              3.000           -0.191        |                
   |                                                          |                
   |                 Pseudopotential Definition               |                
   |        Beta     l      e      Rc     scheme   norm       |                
   |          1      0   -0.533   2.004     qc      0         |                
   |          2      0    0.250   2.004     qc      0         |                
   |          3      1   -0.191   2.004     qc      0         |                
   |          4      1    0.250   2.004     qc      0         |                
   |          5      2   -1.494   2.004     qc      0         |                
   |          6      2    0.250   2.004     qc      0         |                
   |         loc     3    0.000   2.004     pn      0         |                
   |                                                          |                
   | Augmentation charge Rinner = 1.400                       |                
   | Partial core correction Rc = 1.400                       |                
   ------------------------------------------------------------                
   | "3|2.0|10|12|13|40:41:32(qc=6)"                          |                
   ------------------------------------------------------------                
   |      Author: Chris J. Pickard, Cambridge University      |                
   ============================================================                
 
 Atomic calculation performed for Yb:
 1s2 2s2 2p6 3s2 3p6 3d10 4s2 4p6 4d10 4f13 5s2 5p6 6s2
 
 Converged in 133 iterations to an ae energy of -382575.340 eV
 
   ============================================================                
   | Pseudopotential Report - Date of generation 28-02-2023   |                
   ------------------------------------------------------------                
   | Element: Yb Ionic charge: 24.00 Level of theory: PBE     |                
   | Atomic Solver: Koelling-Harmon                           |                
   |                                                          |                
   |               Reference Electronic Structure             |                
   |         Orbital         Occupation         Energy        |                
   |            5s              2.000           -2.508        |                
   |            5p              6.000           -1.461        |                
   |            4f             13.000           -0.678        |                
   |            6s              2.000           -0.402        |                
   |                                                          |                
   |                 Pseudopotential Definition               |                
   |        Beta     l      e      Rc     scheme   norm       |                
   |          1      0   -2.508   2.103     qc      0         |                
   |          2      0   -0.402   2.103     qc      0         |                
   |          3      0    0.250   2.103     qc      0         |                
   |          4      1   -1.461   2.103     qc      0         |                
   |          5      1    0.250   2.103     qc      0         |                
   |          6      3   -0.678   2.103     qc      0         |                
   |          7      3    0.250   2.103     qc      0         |                
   |         loc     2    0.000   2.103     pn      0         |                
   |                                                          |                
   | Augmentation charge Rinner = 1.469                       |                
   | Partial core correction Rc = 1.469                       |                
   ------------------------------------------------------------                
   | "2|2.1|10|12|13|50U:60:51:43{4f13}(qc=6)"                |                
   ------------------------------------------------------------                
   |      Author: Chris J. Pickard, Cambridge University      |                
   ============================================================                
 
 Pseudo atomic calculation performed for Cu 3d10 4s1
 
 Converged in 67 iterations to a total energy of -1676.9945 eV
 
 
 Pseudo atomic calculation performed for As 3d10 4s2 4p3
 
 Converged in 31 iterations to a total energy of -2957.8543 eV
 
 
 Pseudo atomic calculation performed for Yb 4f13 5s2 5p6 6s2
 
 Converged in 41 iterations to a total energy of -6377.4800 eV
 
 Calculation not parallelised.

 ************************************ Title ************************************
 

 ***************************** General Parameters ******************************
  
 output verbosity                               : normal  (1)
 write checkpoint data to                       : YbCuAs2.check
 type of calculation                            : geometry optimization
 stress calculation                             : off
 density difference calculation                 : off
 electron localisation func (ELF) calculation   : off
 Hirshfeld analysis                             : off
 unlimited duration calculation
 timing information                             : on
 memory usage estimate                          : on
 write extra output files                       : on
 write final potential to formatted file        : off
 write final density to formatted file          : off
 write structure in CELL formatted file         : on
 write BibTeX reference list                    : on
 write OTFG pseudopotential files               : on
 write electrostatic potential file             : on
 write bands file                               : on
 checkpoint writing                             : write castep_bin only
  
 output         length unit                     : A
 output           mass unit                     : amu
 output           time unit                     : ps
 output         charge unit                     : e
 output           spin unit                     : hbar/2
 output         energy unit                     : eV
 output          force unit                     : eV/A
 output       velocity unit                     : A/ps
 output       pressure unit                     : GPa
 output     inv_length unit                     : 1/A
 output      frequency unit                     : cm-1
 output force constant unit                     : eV/A**2
 output         volume unit                     : A**3
 output   IR intensity unit                     : (D/A)**2/amu
 output         dipole unit                     : D
 output         efield unit                     : eV/A/e
 output        entropy unit                     : J/mol/K
  
 wavefunctions paging                           : none
 random number generator seed                   : randomised (153959721)
 data distribution                              : optimal for this architecture
 optimization strategy                          : maximize speed(+++)

 *********************** Exchange-Correlation Parameters ***********************
  
 using functional                               : Perdew Burke Ernzerhof
 relativistic treatment                         : Koelling-Harmon
 DFT+D: Semi-empirical dispersion correction    : off

 ************************* Pseudopotential Parameters **************************
  
 pseudopotential representation                 : reciprocal space
 <beta|phi> representation                      : reciprocal space
 spin-orbit coupling                            : off

 **************************** Basis Set Parameters *****************************
  
 plane wave basis set cut-off                   :   850.0000   eV
 size of standard grid                          :     1.7500
 size of   fine   gmax                          :    26.1388   1/A
 finite basis set correction                    : none

 **************************** Electronic Parameters ****************************
  
 number of  electrons                           :  130.0    
 net charge of system                           :  0.000    
 net spin   of system                           :  0.000    
 number of  up  spins                           :  65.00    
 number of down spins                           :  65.00    
 treating system as spin-polarized
 number of bands                                :         78

 ********************* Electronic Minimization Parameters **********************
  
 Method: Treating system as metallic with density mixing treatment of electrons,
         and number of  SD  steps               :          1
         and number of  CG  steps               :          4
  
 total energy / atom convergence tol.           : 0.1000E-07   eV
 eigen-energy convergence tolerance             : 0.1231E-08   eV
 max force / atom convergence tol.              : ignored
 convergence tolerance window                   :          3   cycles
 max. number of SCF cycles                      :        200
 number of fixed-spin iterations                :         10
 smearing scheme                                : Gaussian
 smearing width                                 : 0.2000       eV
 Fermi energy convergence tolerance             : 0.2721E-13   eV
 periodic dipole correction                     : NONE

 ************************** Density Mixing Parameters **************************
  
 density-mixing scheme                          : Broyden
 max. length of mixing history                  :         20
 charge density mixing amplitude                : 0.8000    
   spin density mixing amplitude                :  2.000    
 cut-off energy for mixing                      :  850.0       eV

 *********************** Population Analysis Parameters ************************
  
 Population analysis with cutoff                :  3.000       A
 Population analysis output                     : summary and pdos components

 ********************** Geometry Optimization Parameters ***********************
  
 optimization method                            : LBFGS
 max. no. of LBFGS updates                      : unbounded
 variable cell method                           : fixed basis quality
 max. number of steps                           :        200
 estimated bulk modulus                         :  500.0       GPa
 estimated <frequency>                          :  1668.       cm-1
 geom line minimiser                            : on
 with line minimiser tolerance                  :     0.4000
  with spin fully able to relax for all steps
 total energy convergence tolerance             : 0.2000E-04   eV/atom
        max ionic |force| tolerance             : 0.5000E-01   eV/A
 max ionic |displacement| tolerance             : 0.1000E-02   A
   max |stress component| tolerance             : 0.1000       GPa
 convergence tolerance window                   :          2   steps
 backup results every                           :       3600   seconds
 write geom trajectory file                     : on

 *******************************************************************************
  
 
                           -------------------------------
                                      Unit Cell
                           -------------------------------
        Real Lattice(A)                      Reciprocal Lattice(1/A)
     3.8420000     0.0000000     0.0000000        1.635394406   0.000000000   0.000000000
     0.0000000     3.8420000     0.0000000        0.000000000   1.635394406   0.000000000
     0.0000000     0.0000000     9.7430000        0.000000000   0.000000000   0.644892262
 
                       Lattice parameters(A)       Cell Angles
                    a =      3.842000          alpha =   90.000000
                    b =      3.842000          beta  =   90.000000
                    c =      9.743000          gamma =   90.000000
 
                       Current cell volume =           143.816072       A**3
                                   density =             5.373936   AMU/A**3
                                           =             8.923631     g/cm^3
 
                           -------------------------------
                                     Cell Contents
                           -------------------------------
                         Total number of ions in cell =    8
                      Total number of species in cell =    3
                        Max number of any one species =    4
 
            xxxxxxxxxxxxxxxxxxxxxxxxxxxxxxxxxxxxxxxxxxxxxxxxxxxxxxxxxxxx
            x  Element    Atom        Fractional coordinates of atoms  x
            x            Number           u          v          w      x
            x----------------------------------------------------------x
            x  Cu           1         0.750000   0.250000   0.500000   x 
            x  Cu           2         0.250000   0.750000   0.500000   x 
            x  As           1         0.750000   0.250000   0.000000   x 
            x  As           2         0.250000   0.750000   0.000000   x 
            x  As           3         0.750000   0.750000   0.334840   x 
            x  As           4         0.250000   0.250000   0.665160   x 
            x  Yb           1         0.250000   0.250000   0.236240   x 
            x  Yb           2         0.750000   0.750000   0.763760   x 
            xxxxxxxxxxxxxxxxxxxxxxxxxxxxxxxxxxxxxxxxxxxxxxxxxxxxxxxxxxxx
 
 
                         No user defined ionic velocities
 
                           -------------------------------
                                   Details of Species
                           -------------------------------
 
                               Mass of species in AMU
                                    Cu   63.5460000
                                    As   74.9216000
                                    Yb  173.0400000
 
                          Electric Quadrupole Moment (Barn)
                                    Cu   -0.2200000 Isotope 63
                                    As    0.3140000 Isotope 75
                                    Yb    2.8000000 Isotope173
 
                          Files used for pseudopotentials:
                                    Cu 3|2.2|2.0|1.0|10|12|13|40:41:32(qc=6)
                                    As 3|2.0|10|12|13|40:41:32(qc=6)
                                    Yb 2|2.1|10|12|13|50U:60:51:43{4f13}(qc=6)
 
                           -------------------------------
                              k-Points For BZ Sampling
                           -------------------------------
                       MP grid size for SCF calculation is 10 10  4
                            with an offset of   0.000  0.000  0.000
                       Number of kpoints used =            30
 
                           -------------------------------
                               Symmetry and Constraints
                           -------------------------------
 
                      Maximum deviation from symmetry =  0.00000         ANG
 
                      Number of symmetry operations   =          16
                      Number of ionic constraints     =           3
                      Point group of crystal =    15: D4h, 4/mmm, 4/m 2/m 2/m
                      Space group of crystal =   129: P4/nmm, P 4ab 2ab -1ab
 
             Set iprint > 1 for details on symmetry rotations/translations
 
                         Centre of mass is constrained
             Set iprint > 1 for details of linear ionic constraints
 
                         Number of cell constraints= 6
                         Cell constraints are:  0 0 0 0 0 0
 
                         External pressure/stress (GPa)
                          0.00000   0.00000   0.00000
                                    0.00000   0.00000
                                              0.00000
  
+---------------- MEMORY AND SCRATCH DISK ESTIMATES PER PROCESS --------------+
|                                                     Memory          Disk    |
| Baseline code, static data and system overhead       96.0 MB         0.0 MB |
| BLAS internal memory storage                          0.0 MB         0.0 MB |
| Model and support data                             1183.2 MB         0.0 MB |
| Electronic energy minimisation requirements        1255.7 MB         0.0 MB |
| Force calculation requirements                       20.4 MB         0.0 MB |
|                                               ----------------------------- |
| Approx. total storage required per process         2534.9 MB         0.0 MB |
|                                                                             |
| Requirements will fluctuate during execution and may exceed these estimates |
+-----------------------------------------------------------------------------+
Calculating total energy with cut-off of  850.000 eV.
------------------------------------------------------------------------ <-- SCF
SCF loop      Energy           Fermi           Energy gain       Timer   <-- SCF
                               energy          per atom          (sec)   <-- SCF
------------------------------------------------------------------------ <-- SCF
Initial  -2.81703526E+004  0.00000000E+000                        40.36  <-- SCF
      1  -2.74958027E+004  1.04824179E+001  -8.43187441E+001     221.23  <-- SCF
      2  -2.79906921E+004  8.74699645E+000   6.18611712E+001     339.13  <-- SCF
      3  -2.80170006E+004  8.59105281E+000   3.28856429E+000     470.50  <-- SCF
      4  -2.80175695E+004  8.57877807E+000   7.11207019E-002     604.61  <-- SCF
      5  -2.83578229E+004  1.38795212E+001   4.25316686E+001     765.68  <-- SCF
      6  -2.83613528E+004  1.38323328E+001   4.41240519E-001     909.92  <-- SCF
      7  -2.81148106E+004  6.26053850E+000  -3.08177722E+001    1105.15  <-- SCF
      8  -2.81471357E+004  6.28901622E+000   4.04063359E+000    1233.71  <-- SCF
      9  -2.81476292E+004  6.28761120E+000   6.16917380E-002    1376.32  <-- SCF
     10  -2.81215591E+004  1.38656145E+001  -3.25877023E+000    1524.36  <-- SCF
 Warning: There are no empty bands for at least one kpoint and spin; this may
          slow the convergence and/or lead to an inaccurate groundstate.
          If this warning persists, you should consider increasing nextra_bands
          and/or reducing smearing_width in the param file.
          Recommend using nextra_bands of 21 to 33.                             
  
     11  -2.81325440E+004  1.38216505E+001   1.37311605E+000    1670.88  <-- SCF
     12  -2.99202558E+004 -1.20992916E+001   2.23463975E+002    1889.48  <-- SCF
     13  -3.01868048E+004 -1.08619187E+001   3.33186199E+001    2018.07  <-- SCF
     14  -3.01905500E+004 -1.08665314E+001   4.68152125E-001    2163.65  <-- SCF
     15  -2.83901699E+004  6.00019532E+000  -2.25047514E+002    2301.64  <-- SCF
     16  -2.83957638E+004  5.34679934E+000   6.99242172E-001    2440.05  <-- SCF
     17  -2.81970252E+004  1.12861232E+001  -2.48423191E+001    2584.46  <-- SCF
     18  -2.82048956E+004  1.09142367E+001   9.83796835E-001    2716.91  <-- SCF
     19  -2.82166832E+004  1.35325547E+001   1.47345326E+000    2935.00  <-- SCF
     20  -2.81972603E+004  3.47725206E+000  -2.42787244E+000    3137.69  <-- SCF
     21  -2.80358045E+004  6.04450794E+000  -2.01819679E+001    3268.70  <-- SCF
     22  -2.80375841E+004  5.78739586E+000   2.22445235E-001    3409.02  <-- SCF
     23  -2.79990317E+004  6.63812217E+000  -4.81904738E+000    3550.78  <-- SCF
     24  -2.79991959E+004  6.63060987E+000   2.05283913E-002    3684.70  <-- SCF
 +-------------------------------------------------+
 |                                                 |
 |      CCC   AA    SSS  TTTTT  EEEEE  PPPP        |
 |     C     A  A  S       T    E      P   P       |
 |     C     AAAA   SS     T    EEE    PPPP        |
 |     C     A  A     S    T    E      P           |
 |      CCC  A  A  SSS     T    EEEEE  P           |
 |                                                 |
 +-------------------------------------------------+
 |                                                 |
 | Welcome to Academic Release CASTEP version 18.1 |          
 | Ab Initio Total Energy Program                  |
 |                                                 |
 | Authors:                                        |
 | M. Segall, M. Probert, C. Pickard, P. Hasnip,   |
 | S. Clark, K. Refson, J. R. Yates, M. Payne      |
 |                                                 |
 | Contributors:                                   |
 | P. Lindan, P. Haynes, J. White, V. Milman,      |
 | N. Govind, M. Gibson, P. Tulip, V. Cocula,      |
 | B. Montanari, D. Quigley, M. Glover,            |
 | L. Bernasconi, A. Perlov, M. Plummer,           |
 | E. McNellis, J. Meyer, J. Gale, D. Jochym       |
 | J. Aarons, B. Walker, R. Gillen, D. Jones       |
 | T. Green, I. J. Bush, C. J. Armstrong,          |
 | E. J. Higgins, E. L. Brown, M. S. McFly,        |
 | J. Wilkins, B-C. Shih, P. J. P. Byrne           |
 |                                                 |
 | Copyright (c) 2000 - 2017                       |
 |                                                 |
 |     Distributed under the terms of an           |
 |     Agreement between the United Kingdom        |
 |     Car-Parrinello (UKCP) Consortium,           |
 |     Daresbury Laboratory and Accelrys, Inc.     |
 |                                                 |
 | Please cite                                     |
 |                                                 |
 |     "First principles methods using CASTEP"     |
 |                                                 |
 |         Zeitschrift fuer Kristallographie       |
 |           220(5-6) pp. 567-570 (2005)           |
 |                                                 |
 | S. J. Clark, M. D. Segall, C. J. Pickard,       |
 | P. J. Hasnip, M. J. Probert, K. Refson,         |
 | M. C. Payne                                     |
 |                                                 |
 |       in all publications arising from          |
 |              your use of CASTEP                 |
 |                                                 |
 +-------------------------------------------------+
 
 
 Compiled for linux_x86_64_ifort17 on Wed, 28 Feb 2018 17:00:19 +0000
 from code version baee3ec33e17+  Mon, 11 Dec 2017 11:05:17 +0000
 Compiler: Intel Fortran 17.0.2.174; Optimisation: fast
 MATHLIBS: Intel MKL(2017.0.2) (LAPACK version 3.7.0)
 FFT Lib : mkl
 Fundamental constants values: CODATA 2014
 
 Run started: Tue, 28 Feb 2023 16:47:44 +0000
 +-------------------------------------------------+
 |                                                 |
 |      CCC   AA    SSS  TTTTT  EEEEE  PPPP        |
 |     C     A  A  S       T    E      P   P       |
 |     C     AAAA   SS     T    EEE    PPPP        |
 |     C     A  A     S    T    E      P           |
 |      CCC  A  A  SSS     T    EEEEE  P           |
 |                                                 |
 +-------------------------------------------------+
 |                                                 |
 | Welcome to Academic Release CASTEP version 18.1 |          
 | Ab Initio Total Energy Program                  |
 |                                                 |
 | Authors:                                        |
 | M. Segall, M. Probert, C. Pickard, P. Hasnip,   |
 | S. Clark, K. Refson, J. R. Yates, M. Payne      |
 |                                                 |
 | Contributors:                                   |
 | P. Lindan, P. Haynes, J. White, V. Milman,      |
 | N. Govind, M. Gibson, P. Tulip, V. Cocula,      |
 | B. Montanari, D. Quigley, M. Glover,            |
 | L. Bernasconi, A. Perlov, M. Plummer,           |
 | E. McNellis, J. Meyer, J. Gale, D. Jochym       |
 | J. Aarons, B. Walker, R. Gillen, D. Jones       |
 | T. Green, I. J. Bush, C. J. Armstrong,          |
 | E. J. Higgins, E. L. Brown, M. S. McFly,        |
 | J. Wilkins, B-C. Shih, P. J. P. Byrne           |
 |                                                 |
 | Copyright (c) 2000 - 2017                       |
 |                                                 |
 |     Distributed under the terms of an           |
 |     Agreement between the United Kingdom        |
 |     Car-Parrinello (UKCP) Consortium,           |
 |     Daresbury Laboratory and Accelrys, Inc.     |
 |                                                 |
 | Please cite                                     |
 |                                                 |
 |     "First principles methods using CASTEP"     |
 |                                                 |
 |         Zeitschrift fuer Kristallographie       |
 |           220(5-6) pp. 567-570 (2005)           |
 |                                                 |
 | S. J. Clark, M. D. Segall, C. J. Pickard,       |
 | P. J. Hasnip, M. J. Probert, K. Refson,         |
 | M. C. Payne                                     |
 |                                                 |
 |       in all publications arising from          |
 |              your use of CASTEP                 |
 |                                                 |
 +-------------------------------------------------+
 
 
 Compiled for linux_x86_64_ifort17 on Wed, 28 Feb 2018 17:00:19 +0000
 from code version baee3ec33e17+  Mon, 11 Dec 2017 11:05:17 +0000
 Compiler: Intel Fortran 17.0.2.174; Optimisation: fast
 MATHLIBS: Intel MKL(2017.0.2) (LAPACK version 3.7.0)
 FFT Lib : mkl
 Fundamental constants values: CODATA 2014
 
 Run started: Tue, 28 Feb 2023 17:05:54 +0000
 
 Atomic calculation performed for Cu: 1s2 2s2 2p6 3s2 3p6 3d10 4s1
 
 Converged in 144 iterations to an ae energy of -45030.712 eV
 
   ============================================================                
   | Pseudopotential Report - Date of generation 28-02-2023   |                
   ------------------------------------------------------------                
   | Element: Cu Ionic charge: 11.00 Level of theory: PBE     |                
   | Atomic Solver: Koelling-Harmon                           |                
   |                                                          |                
   |               Reference Electronic Structure             |                
   |         Orbital         Occupation         Energy        |                
   |            3d             10.000           -0.185        |                
   |            4s              1.000           -0.169        |                
   |                                                          |                
   |                 Pseudopotential Definition               |                
   |        Beta     l      e      Rc     scheme   norm       |                
   |          1      0   -0.169   1.996     qc      0         |                
   |          2      0    0.250   1.996     qc      0         |                
   |          3      1    0.000   1.996     qc      0         |                
   |          4      1    0.250   1.996     qc      0         |                
   |          5      2   -0.185   1.996     qc      0         |                
   |          6      2    0.250   1.996     qc      0         |                
   |         loc     3    0.000   2.206     pn      0         |                
   |                                                          |                
   | Augmentation charge Rinner = 0.999                       |                
   | Partial core correction Rc = 0.999                       |                
   ------------------------------------------------------------                
   | "3|2.2|2.0|1.0|10|12|13|40:41:32(qc=6)"                  |                
   ------------------------------------------------------------                
   |      Author: Chris J. Pickard, Cambridge University      |                
   ============================================================                
 
 Atomic calculation performed for As: 1s2 2s2 2p6 3s2 3p6 3d10 4s2 4p3
 
 Converged in 83 iterations to an ae energy of -61519.639 eV
 
   ============================================================                
   | Pseudopotential Report - Date of generation 28-02-2023   |                
   ------------------------------------------------------------                
   | Element: As Ionic charge: 15.00 Level of theory: PBE     |                
   | Atomic Solver: Koelling-Harmon                           |                
   |                                                          |                
   |               Reference Electronic Structure             |                
   |         Orbital         Occupation         Energy        |                
   |            3d             10.000           -1.494        |                
   |            4s              2.000           -0.533        |                
   |            4p              3.000           -0.191        |                
   |                                                          |                
   |                 Pseudopotential Definition               |                
   |        Beta     l      e      Rc     scheme   norm       |                
   |          1      0   -0.533   2.004     qc      0         |                
   |          2      0    0.250   2.004     qc      0         |                
   |          3      1   -0.191   2.004     qc      0         |                
   |          4      1    0.250   2.004     qc      0         |                
   |          5      2   -1.494   2.004     qc      0         |                
   |          6      2    0.250   2.004     qc      0         |                
   |         loc     3    0.000   2.004     pn      0         |                
   |                                                          |                
   | Augmentation charge Rinner = 1.400                       |                
   | Partial core correction Rc = 1.400                       |                
   ------------------------------------------------------------                
   | "3|2.0|10|12|13|40:41:32(qc=6)"                          |                
   ------------------------------------------------------------                
   |      Author: Chris J. Pickard, Cambridge University      |                
   ============================================================                
 
 Atomic calculation performed for Yb:
 1s2 2s2 2p6 3s2 3p6 3d10 4s2 4p6 4d10 4f13 5s2 5p6 6s2
 
 Converged in 130 iterations to an ae energy of -382575.340 eV
 
   ============================================================                
   | Pseudopotential Report - Date of generation 28-02-2023   |                
   ------------------------------------------------------------                
   | Element: Yb Ionic charge: 24.00 Level of theory: PBE     |                
   | Atomic Solver: Koelling-Harmon                           |                
   |                                                          |                
   |               Reference Electronic Structure             |                
   |         Orbital         Occupation         Energy        |                
   |            5s              2.000           -2.508        |                
   |            5p              6.000           -1.461        |                
   |            4f             13.000           -0.678        |                
   |            6s              2.000           -0.402        |                
   |                                                          |                
   |                 Pseudopotential Definition               |                
   |        Beta     l      e      Rc     scheme   norm       |                
   |          1      0   -2.508   2.103     qc      0         |                
   |          2      0   -0.402   2.103     qc      0         |                
   |          3      0    0.250   2.103     qc      0         |                
   |          4      1   -1.461   2.103     qc      0         |                
   |          5      1    0.250   2.103     qc      0         |                
   |          6      3   -0.678   2.103     qc      0         |                
   |          7      3    0.250   2.103     qc      0         |                
   |         loc     2    0.000   2.103     pn      0         |                
   |                                                          |                
   | Augmentation charge Rinner = 1.469                       |                
   | Partial core correction Rc = 1.469                       |                
   ------------------------------------------------------------                
   | "2|2.1|10|12|13|50U:60:51:43{4f13}(qc=6)"                |                
   ------------------------------------------------------------                
   |      Author: Chris J. Pickard, Cambridge University      |                
   ============================================================                
 
 Pseudo atomic calculation performed for Cu 3d10 4s1
 
 Converged in 67 iterations to a total energy of -1676.9944 eV
 
 
 Pseudo atomic calculation performed for As 3d10 4s2 4p3
 
 Converged in 31 iterations to a total energy of -2957.8543 eV
 
 
 Pseudo atomic calculation performed for Yb 4f13 5s2 5p6 6s2
 
 Converged in 41 iterations to a total energy of -6377.4802 eV
 
 Calculation not parallelised.

 ************************************ Title ************************************
 

 ***************************** General Parameters ******************************
  
 output verbosity                               : normal  (1)
 write checkpoint data to                       : YbCuAs2.check
 type of calculation                            : geometry optimization
 stress calculation                             : off
 density difference calculation                 : off
 electron localisation func (ELF) calculation   : off
 Hirshfeld analysis                             : off
 unlimited duration calculation
 timing information                             : on
 memory usage estimate                          : on
 write extra output files                       : on
 write final potential to formatted file        : off
 write final density to formatted file          : off
 write structure in CELL formatted file         : on
 write BibTeX reference list                    : on
 write OTFG pseudopotential files               : on
 write electrostatic potential file             : on
 write bands file                               : on
 checkpoint writing                             : write castep_bin only
  
 output         length unit                     : A
 output           mass unit                     : amu
 output           time unit                     : ps
 output         charge unit                     : e
 output           spin unit                     : hbar/2
 output         energy unit                     : eV
 output          force unit                     : eV/A
 output       velocity unit                     : A/ps
 output       pressure unit                     : GPa
 output     inv_length unit                     : 1/A
 output      frequency unit                     : cm-1
 output force constant unit                     : eV/A**2
 output         volume unit                     : A**3
 output   IR intensity unit                     : (D/A)**2/amu
 output         dipole unit                     : D
 output         efield unit                     : eV/A/e
 output        entropy unit                     : J/mol/K
  
 wavefunctions paging                           : none
 random number generator seed                   : randomised (170554468)
 data distribution                              : optimal for this architecture
 optimization strategy                          : maximize speed(+++)

 *********************** Exchange-Correlation Parameters ***********************
  
 using functional                               : Perdew Burke Ernzerhof
 relativistic treatment                         : Koelling-Harmon
 DFT+D: Semi-empirical dispersion correction    : off

 ************************* Pseudopotential Parameters **************************
  
 pseudopotential representation                 : reciprocal space
 <beta|phi> representation                      : reciprocal space
 spin-orbit coupling                            : off

 **************************** Basis Set Parameters *****************************
  
 plane wave basis set cut-off                   :   850.0000   eV
 size of standard grid                          :     1.7500
 size of   fine   gmax                          :    26.1388   1/A
 finite basis set correction                    : none

 **************************** Electronic Parameters ****************************
  
 number of  electrons                           :  130.0    
 net charge of system                           :  0.000    
 net spin   of system                           :  0.000    
 number of  up  spins                           :  65.00    
 number of down spins                           :  65.00    
 treating system as spin-polarized
 number of bands                                :         78

 ********************* Electronic Minimization Parameters **********************
  
 Method: Treating system as metallic with density mixing treatment of electrons,
         and number of  SD  steps               :          1
         and number of  CG  steps               :          4
  
 total energy / atom convergence tol.           : 0.1000E-07   eV
 eigen-energy convergence tolerance             : 0.1231E-08   eV
 max force / atom convergence tol.              : ignored
 convergence tolerance window                   :          3   cycles
 max. number of SCF cycles                      :        200
 number of fixed-spin iterations                :         10
 smearing scheme                                : Gaussian
 smearing width                                 : 0.2000       eV
 Fermi energy convergence tolerance             : 0.2721E-13   eV
 periodic dipole correction                     : NONE

 ************************** Density Mixing Parameters **************************
  
 density-mixing scheme                          : Pulay
 max. length of mixing history                  :         20
 charge density mixing amplitude                : 0.8000    
   spin density mixing amplitude                :  2.000    
 cut-off energy for mixing                      :  850.0       eV

 *********************** Population Analysis Parameters ************************
  
 Population analysis with cutoff                :  3.000       A
 Population analysis output                     : summary and pdos components

 ********************** Geometry Optimization Parameters ***********************
  
 optimization method                            : LBFGS
 max. no. of LBFGS updates                      : unbounded
 variable cell method                           : fixed basis quality
 max. number of steps                           :        200
 estimated bulk modulus                         :  500.0       GPa
 estimated <frequency>                          :  1668.       cm-1
 geom line minimiser                            : on
 with line minimiser tolerance                  :     0.4000
  with spin fully able to relax for all steps
 total energy convergence tolerance             : 0.2000E-04   eV/atom
        max ionic |force| tolerance             : 0.5000E-01   eV/A
 max ionic |displacement| tolerance             : 0.1000E-02   A
   max |stress component| tolerance             : 0.1000       GPa
 convergence tolerance window                   :          2   steps
 backup results every                           :       3600   seconds
 write geom trajectory file                     : on

 *******************************************************************************
  
 
                           -------------------------------
                                      Unit Cell
                           -------------------------------
        Real Lattice(A)                      Reciprocal Lattice(1/A)
     3.8420000     0.0000000     0.0000000        1.635394406   0.000000000   0.000000000
     0.0000000     3.8420000     0.0000000        0.000000000   1.635394406   0.000000000
     0.0000000     0.0000000     9.7430000        0.000000000   0.000000000   0.644892262
 
                       Lattice parameters(A)       Cell Angles
                    a =      3.842000          alpha =   90.000000
                    b =      3.842000          beta  =   90.000000
                    c =      9.743000          gamma =   90.000000
 
                       Current cell volume =           143.816072       A**3
                                   density =             5.373936   AMU/A**3
                                           =             8.923631     g/cm^3
 
                           -------------------------------
                                     Cell Contents
                           -------------------------------
                         Total number of ions in cell =    8
                      Total number of species in cell =    3
                        Max number of any one species =    4
 
            xxxxxxxxxxxxxxxxxxxxxxxxxxxxxxxxxxxxxxxxxxxxxxxxxxxxxxxxxxxx
            x  Element    Atom        Fractional coordinates of atoms  x
            x            Number           u          v          w      x
            x----------------------------------------------------------x
            x  Cu           1         0.750000   0.250000   0.500000   x 
            x  Cu           2         0.250000   0.750000   0.500000   x 
            x  As           1         0.750000   0.250000   0.000000   x 
            x  As           2         0.250000   0.750000   0.000000   x 
            x  As           3         0.750000   0.750000   0.334840   x 
            x  As           4         0.250000   0.250000   0.665160   x 
            x  Yb           1         0.250000   0.250000   0.236240   x 
            x  Yb           2         0.750000   0.750000   0.763760   x 
            xxxxxxxxxxxxxxxxxxxxxxxxxxxxxxxxxxxxxxxxxxxxxxxxxxxxxxxxxxxx
 
 
                         No user defined ionic velocities
 
                           -------------------------------
                                   Details of Species
                           -------------------------------
 
                               Mass of species in AMU
                                    Cu   63.5460000
                                    As   74.9216000
                                    Yb  173.0400000
 
                          Electric Quadrupole Moment (Barn)
                                    Cu   -0.2200000 Isotope 63
                                    As    0.3140000 Isotope 75
                                    Yb    2.8000000 Isotope173
         xxxxxxxxxxxxxxxxxxxxxxxxxxxxxxxxxxxxxxxxxxxxxxxxxxxxxxxxxxxxxxxxxxxxxx
         |  Element    Atom         Initial            Initial magnetic       |
         |            Number    spin polarization        moment (uB)          |
         |--------------------------------------------------------------------|
         | Cu             1         0.000000              0.000               |
         | Cu             2         0.000000              0.000               |
         | As             1         0.000000              0.000               |
         | As             2         0.000000              0.000               |
         | As             3         0.000000              0.000               |
         | As             4         0.000000              0.000               |
         | Yb             1         0.041667              1.000               |
         | Yb             2        -0.041667             -1.000               |
         xxxxxxxxxxxxxxxxxxxxxxxxxxxxxxxxxxxxxxxxxxxxxxxxxxxxxxxxxxxxxxxxxxxxxx
 
 
                          Files used for pseudopotentials:
                                    Cu 3|2.2|2.0|1.0|10|12|13|40:41:32(qc=6)
                                    As 3|2.0|10|12|13|40:41:32(qc=6)
                                    Yb 2|2.1|10|12|13|50U:60:51:43{4f13}(qc=6)
 
                           -------------------------------
                              k-Points For BZ Sampling
                           -------------------------------
                       MP grid size for SCF calculation is 10 10  4
                            with an offset of   0.000  0.000  0.000
                       Number of kpoints used =            30
 
                           -------------------------------
                               Symmetry and Constraints
                           -------------------------------
 
                      Maximum deviation from symmetry = 0.853095E-15     ANG
 
                      Number of symmetry operations   =           8
                      Number of ionic constraints     =           3
                      Point group of crystal =    12: C4v, 4mm, 4 mm
                      Space group of crystal =   129: P4/nmm, P 4ab 2ab -1ab
 
             Set iprint > 1 for details on symmetry rotations/translations
 
                         Centre of mass is constrained
             Set iprint > 1 for details of linear ionic constraints
 
                         Number of cell constraints= 6
                         Cell constraints are:  0 0 0 0 0 0
 
                         External pressure/stress (GPa)
                          0.00000   0.00000   0.00000
                                    0.00000   0.00000
                                              0.00000
  
+---------------- MEMORY AND SCRATCH DISK ESTIMATES PER PROCESS --------------+
|                                                     Memory          Disk    |
| Baseline code, static data and system overhead       93.0 MB         0.0 MB |
| BLAS internal memory storage                          0.0 MB         0.0 MB |
| Model and support data                             1183.2 MB         0.0 MB |
| Electronic energy minimisation requirements        1250.8 MB         0.0 MB |
| Force calculation requirements                       20.4 MB         0.0 MB |
|                                               ----------------------------- |
| Approx. total storage required per process         2527.0 MB         0.0 MB |
|                                                                             |
| Requirements will fluctuate during execution and may exceed these estimates |
[...]
------------------------------------------------------------------------ <-- SCF
Initial  -2.78846958E+004  0.00000000E+000                      2724.34  <-- SCF
      1  -2.80066289E+004  5.88109433E+000   1.52416274E+001    2872.40  <-- SCF
      2  -2.80066598E+004  5.88050066E+000   3.87039611E-003    3028.51  <-- SCF
 Warning: There are no empty bands for at least one kpoint and spin; this may
          slow the convergence and/or lead to an inaccurate groundstate.
          If this warning persists, you should consider increasing nextra_bands
          and/or reducing smearing_width in the param file.
          Recommend using nextra_bands of 21 to 33.                             
  
      3  -2.80868551E+004  1.36328057E+001   1.00244068E+001    3178.74  <-- SCF
 Warning: There are no empty bands for at least one kpoint and spin; this may
          slow the convergence and/or lead to an inaccurate groundstate.
          If this warning persists, you should consider increasing nextra_bands
          and/or reducing smearing_width in the param file.
          Recommend using nextra_bands of 21 to 33.                             
  
      4  -2.80878685E+004  1.35158223E+001   1.26680108E-001    3336.33  <-- SCF
      5  -2.80087909E+004  8.05459867E+000  -9.88470347E+000    3501.96  <-- SCF
      6  -2.80115820E+004  8.05856016E+000   3.48888851E-001    3646.77  <-- SCF
      7  -2.80027805E+004  6.18301595E+000  -1.10019282E+000    3801.67  <-- SCF
      8  -2.80013448E+004  6.26672324E+000  -1.79456969E-001    3953.43  <-- SCF
      9  -2.80004319E+004  6.32467781E+000  -1.14118337E-001    4121.23  <-- SCF
     10  -2.79990792E+004  6.44129410E+000  -1.69082420E-001    4279.06  <-- SCF
     11  -2.79985588E+004  6.52721798E+000  -6.50449588E-002    4451.61  <-- SCF
     12  -2.79984484E+004  6.57443321E+000  -1.38054569E-002    4613.66  <-- SCF
     13  -2.79984701E+004  6.75743215E+000   2.71612180E-003    4776.76  <-- SCF
     14  -2.79984377E+004  6.69239592E+000  -4.04801072E-003    4928.20  <-- SCF
     15  -2.79984324E+004  6.67439964E+000  -6.71729163E-004    5095.72  <-- SCF
     16  -2.79984571E+004  6.73660823E+000   3.09084395E-003    5245.94  <-- SCF
     17  -2.79984453E+004  6.71183438E+000  -1.47850250E-003    5382.62  <-- SCF
     18  -2.79984335E+004  6.67481266E+000  -1.47251786E-003    5531.94  <-- SCF
     19  -2.79984405E+004  6.69515079E+000   8.71325486E-004    5678.43  <-- SCF
     20  -2.79984288E+004  6.64282138E+000  -1.45076289E-003    5823.94  <-- SCF
     21  -2.79984292E+004  6.64680002E+000   4.88184620E-005    5964.60  <-- SCF
     22  -2.79984288E+004  6.64049121E+000  -4.82323708E-005    6111.24  <-- SCF
     23  -2.79984287E+004  6.63553085E+000  -1.56174736E-005    6268.29  <-- SCF
     24  -2.79984287E+004  6.63389018E+000  -9.19627464E-008    6422.70  <-- SCF
     25  -2.79984287E+004  6.63368102E+000  -9.04600417E-008    6557.15  <-- SCF
     26  -2.79984287E+004  6.63357613E+000  -2.02114176E-007    6680.14  <-- SCF
     27  -2.79984287E+004  6.63346732E+000  -2.46191452E-007    6806.58  <-- SCF
     28  -2.79984287E+004  6.63361210E+000  -5.94487168E-007    6935.04  <-- SCF
     29  -2.79984287E+004  6.63422526E+000  -9.81350501E-007    7073.71  <-- SCF
     30  -2.79984287E+004  6.63450390E+000  -4.74981537E-007    7210.86  <-- SCF
     31  -2.79984287E+004  6.63482299E+000  -5.84846811E-007    7352.43  <-- SCF
     32  -2.79984287E+004  6.63507201E+000   3.18537831E-008    7472.28  <-- SCF
     33  -2.79984287E+004  6.63498095E+000   3.48568724E-009    7555.11  <-- SCF
     34  -2.79984287E+004  6.63490798E+000   2.98684804E-009    7638.09  <-- SCF
------------------------------------------------------------------------ <-- SCF
 
Integrated Spin Density     =   -0.348554E-02 hbar/2                        
Integrated |Spin Density|   =    0.154370E-01 hbar/2                        
 
Final energy, E             =  -27998.30223697     eV
Final free energy (E-TS)    =  -27998.42869904     eV
(energies not corrected for finite basis set)
 
NB est. 0K energy (E-0.5TS)      =  -27998.36546801     eV
 
 
 ******************************** Symmetrised Forces ********************************
 *                                                                                  *
 *                           Cartesian components (eV/A)                            *
 * -------------------------------------------------------------------------------- *
 *                         x                    y                    z              *
 *                                                                                  *
 * Cu              1      0.00000             -0.00000              0.00001         *
 * Cu              2     -0.00000              0.00000              0.00001         *
 * As              1     -0.00000              0.00000              0.00001         *
 * As              2      0.00000             -0.00000              0.00001         *
 * As              3      0.00000              0.00000             -0.00051         *
 * As              4      0.00000              0.00000              0.00050         *
 * Yb              1      0.00000              0.00000              0.03372         *
 * Yb              2      0.00000              0.00000             -0.03375         *
 *                                                                                  *
 ************************************************************************************
  
 +------------+-------------+-------------+-----------------+ <-- min LBFGS
 |    Step    |   lambda    |   F.delta'  |    enthalpy     | <-- min LBFGS
 +------------+-------------+-------------+-----------------+ <-- min LBFGS
 |  previous  |    0.000000 |    0.016821 |   -27998.428695 | <-- min LBFGS
 | trial step |    1.000000 |    0.017062 |   -27998.428699 | <-- min LBFGS
 +------------+-------------+-------------+-----------------+ <-- min LBFGS
  
 LBFGS: finished iteration     1 with enthalpy= -2.79984287E+004 eV
  
 +-----------+-----------------+-----------------+------------+-----+ <-- LBFGS
 | Parameter |      value      |    tolerance    |    units   | OK? | <-- LBFGS
 +-----------+-----------------+-----------------+------------+-----+ <-- LBFGS
 |  dE/ion   |   4.692043E-007 |   2.000000E-005 |         eV | Yes | <-- LBFGS
 |  |F|max   |   3.374560E-002 |   5.000000E-002 |       eV/A | Yes | <-- LBFGS
 |  |dR|max  |   3.417327E-005 |   1.000000E-003 |          A | Yes | <-- LBFGS
 +-----------+-----------------+-----------------+------------+-----+ <-- LBFGS
  
 LBFGS: Geometry optimization completed successfully.

================================================================================
 LBFGS: Final Configuration:
================================================================================
 
                           -------------------------------
                                     Cell Contents
                           -------------------------------
 
            xxxxxxxxxxxxxxxxxxxxxxxxxxxxxxxxxxxxxxxxxxxxxxxxxxxxxxxxxxxxxxxxx
            x  Element         Atom        Fractional coordinates of atoms  x
            x                 Number           u          v          w      x
            x---------------------------------------------------------------x
            x  Cu                1         0.750000   0.250000   0.500000   x
            x  Cu                2         0.250000   0.750000   0.500000   x
            x  As                1         0.750000   0.250000  -0.000000   x
            x  As                2         0.250000   0.750000  -0.000000   x
            x  As                3         0.750000   0.750000   0.341745   x
            x  As                4         0.250000   0.250000   0.658255   x
            x  Yb                1         0.250000   0.250000   0.236382   x
            x  Yb                2         0.750000   0.750000   0.763618   x
            xxxxxxxxxxxxxxxxxxxxxxxxxxxxxxxxxxxxxxxxxxxxxxxxxxxxxxxxxxxxxxxxx
 
 
 LBFGS: Final Enthalpy     = -2.79984287E+004 eV
 LBFGS: Final <frequency>  unchanged from initial value
 
 ******************************** Symmetrised Forces ********************************
 *                                                                                  *
 *                           Cartesian components (eV/A)                            *
 * -------------------------------------------------------------------------------- *
 *                         x                    y                    z              *
 *                                                                                  *
 * Cu              1      0.00000             -0.00000              0.00001         *
 * Cu              2     -0.00000              0.00000              0.00001         *
 * As              1     -0.00000              0.00000              0.00001         *
 * As              2      0.00000             -0.00000              0.00001         *
 * As              3      0.00000              0.00000             -0.00051         *
 * As              4      0.00000              0.00000              0.00050         *
 * Yb              1      0.00000              0.00000              0.03372         *
 * Yb              2      0.00000              0.00000             -0.03375         *
 *                                                                                  *
 ************************************************************************************
 
 Pseudo atomic calculation performed for Cu 3d10 4s1
 
 Converged in 67 iterations to a total energy of -1676.9944 eV
 
 
 Pseudo atomic calculation performed for As 3d10 4s2 4p3
 
 Converged in 31 iterations to a total energy of -2957.8543 eV
 
 
 Pseudo atomic calculation performed for Yb 4f13 5s2 5p6 6s2
 
 Converged in 41 iterations to a total energy of -6377.4802 eV
 
Charge spilling parameter for spin component 1 = 0.12%
Charge spilling parameter for spin component 2 = 0.12%
 
                   Orbital Populations                  
  ---------------------------------------------------------------
     Ion    Atom   Orbital              Up        Down      Spin
  ---------------------------------------------------------------
     Cu     1      Dzz                  0.982     0.982     0.000
     Cu     1      Dzy                  0.956     0.956     0.000
     Cu     1      Dzx                  0.961     0.961     0.000
     Cu     1      Dxx-yy               0.972     0.972     0.000
     Cu     1      Dxy                  0.981     0.981    -0.000
     Cu     1      S                    0.414     0.414     0.000
     Cu     1      Px                   0.187     0.187    -0.000
     Cu     1      Py                   0.168     0.168     0.000
     Cu     1      Pz                   0.225     0.225    -0.000
     Cu     2      Dzz                  0.982     0.982    -0.000
     Cu     2      Dzy                  0.956     0.956    -0.000
     Cu     2      Dzx                  0.961     0.961     0.000
     Cu     2      Dxx-yy               0.972     0.972    -0.000
     Cu     2      Dxy                  0.981     0.981    -0.000
     Cu     2      S                    0.414     0.414     0.000
     Cu     2      Px                   0.187     0.187     0.000
     Cu     2      Py                   0.168     0.168    -0.000
     Cu     2      Pz                   0.225     0.225     0.000
     As     1      Dzz                  1.000     1.000     0.000
     As     1      Dzy                  1.000     1.000     0.000
     As     1      Dzx                  1.000     1.000    -0.000
     As     1      Dxx-yy               1.000     1.000    -0.000
     As     1      Dxy                  1.000     1.000     0.000
     As     1      S                    0.535     0.535    -0.000
     As     1      Px                   0.500     0.500     0.000
     As     1      Py                   0.511     0.511     0.000
     As     1      Pz                   0.698     0.698    -0.000
     As     1      S                    0.396     0.396     0.000
     As     2      Dzz                  1.000     1.000     0.000
     As     2      Dzy                  1.000     1.000    -0.000
     As     2      Dzx                  1.000     1.000    -0.000
     As     2      Dxx-yy               1.000     1.000    -0.000
     As     2      Dxy                  1.000     1.000     0.000
     As     2      S                    0.535     0.535    -0.000
     As     2      Px                   0.500     0.500     0.000
     As     2      Py                   0.511     0.511     0.000
     As     2      Pz                   0.698     0.698     0.000
     As     2      S                    0.396     0.396     0.000
     As     3      Dzz                  1.000     1.000     0.000
     As     3      Dzy                  1.000     1.000     0.000
     As     3      Dzx                  1.000     1.000    -0.000
     As     3      Dxx-yy               1.000     1.000     0.000
     As     3      Dxy                  1.000     1.000    -0.000
     As     3      S                    0.650     0.650     0.000
     As     3      Px                   0.626     0.626     0.000
     As     3      Py                   0.603     0.603     0.000
     As     3      Pz                   0.591     0.591     0.000
     As     3      S                   -0.140    -0.140    -0.000
     As     4      Dzz                  1.000     1.000    -0.000
     As     4      Dzy                  1.000     1.000     0.000
     As     4      Dzx                  1.000     1.000     0.000
     As     4      Dxx-yy               1.000     1.000    -0.000
     As     4      Dxy                  1.000     1.000     0.000
     As     4      S                    0.650     0.650    -0.000
     As     4      Px                   0.625     0.626    -0.000
     As     4      Py                   0.603     0.603    -0.000
     As     4      Pz                   0.591     0.591    -0.000
     As     4      S                   -0.140    -0.140    -0.000
     Yb     1      S                    1.010     1.010    -0.000
     Yb     1      Px                   1.012     1.012    -0.000
     Yb     1      Py                   1.013     1.013    -0.000
     Yb     1      Pz                   1.015     1.015    -0.000
     Yb     1      Fxxx                 0.984     0.984     0.000
     Yb     1      Fyyy                 0.984     0.983     0.000
     Yb     1      Fzzz                 0.985     0.985     0.001
     Yb     1      Fxyz                 0.972     0.971     0.001
     Yb     1      Fz(xx-yy)            0.961     0.960     0.001
     Yb     1      Fy(zz-xx)            0.965     0.964     0.001
     Yb     1      Fx(yy-zz)            0.956     0.954     0.001
     Yb     1      S                    0.159     0.159    -0.000
     Yb     1      Dzz                  0.092     0.092    -0.000
     Yb     1      Dzy                  0.103     0.103     0.000
     Yb     1      Dzx                  0.112     0.112     0.000
     Yb     1      Dxx-yy               0.099     0.099    -0.000
     Yb     1      Dxy                  0.112     0.112     0.000
     Yb     1      Px                   0.073     0.073    -0.000
     Yb     1      Py                   0.050     0.050    -0.000
     Yb     1      Pz                   0.031     0.031    -0.000
     Yb     2      S                    1.010     1.010     0.000
     Yb     2      Px                   1.012     1.012     0.000
     Yb     2      Py                   1.013     1.013     0.000
     Yb     2      Pz                   1.016     1.015     0.000
     Yb     2      Fxxx                 0.983     0.984    -0.001
     Yb     2      Fyyy                 0.983     0.984    -0.001
     Yb     2      Fzzz                 0.985     0.986    -0.001
     Yb     2      Fxyz                 0.970     0.972    -0.002
     Yb     2      Fz(xx-yy)            0.960     0.961    -0.002
     Yb     2      Fy(zz-xx)            0.964     0.965    -0.002
     Yb     2      Fx(yy-zz)            0.954     0.956    -0.002
     Yb     2      S                    0.159     0.159    -0.000
     Yb     2      Dzz                  0.092     0.092     0.000
     Yb     2      Dzy                  0.103     0.103    -0.000
     Yb     2      Dzx                  0.112     0.112    -0.000
     Yb     2      Dxx-yy               0.099     0.099     0.000
     Yb     2      Dxy                  0.112     0.112    -0.000
     Yb     2      Px                   0.073     0.073     0.000
     Yb     2      Py                   0.050     0.050     0.000
     Yb     2      Pz                   0.031     0.031    -0.000
  ---------------------------------------------------------------
                           Total:      64.998    65.002    -0.004
  ---------------------------------------------------------------
 
     Atomic Populations (Mulliken)
     -----------------------------
Species          Ion Spin      s      p      d      f     Total  Charge(e)   Spin(hbar/2)
=========================================================================================
  Cu              1   up:     0.41   0.58   4.85   0.00   5.85    -0.69       -0.00
                  1   dn:     0.41   0.58   4.85   0.00   5.85
  Cu              2   up:     0.41   0.58   4.85   0.00   5.85    -0.69       -0.00
                  2   dn:     0.41   0.58   4.85   0.00   5.85
  As              1   up:     0.93   1.71   5.00   0.00   7.64    -0.28        0.00
                  1   dn:     0.93   1.71   5.00   0.00   7.64
  As              2   up:     0.93   1.71   5.00   0.00   7.64    -0.28        0.00
                  2   dn:     0.93   1.71   5.00   0.00   7.64
  As              3   up:     0.51   1.82   5.00   0.00   7.33     0.34        0.00
                  3   dn:     0.51   1.82   5.00   0.00   7.33
  As              4   up:     0.51   1.82   5.00   0.00   7.33     0.34       -0.00
                  4   dn:     0.51   1.82   5.00   0.00   7.33
  Yb              1   up:     1.17   3.19   0.52   6.81  11.69     0.63        0.01
                  1   dn:     1.17   3.19   0.52   6.80  11.68
  Yb              2   up:     1.17   3.19   0.52   6.80  11.68     0.63       -0.01
                  2   dn:     1.17   3.19   0.52   6.81  11.69
=========================================================================================
 
                 Bond                   Population        Spin       Length (A)
================================================================================
              Cu 2 -- As 4                  -0.61        -0.00          2.46326
              Cu 1 -- As 4                  -0.61        -0.00          2.46326
              Cu 2 -- As 3                  -0.61         0.00          2.46326
              Cu 1 -- As 3                  -0.61         0.00          2.46326
              As 1 -- As 2                 -17.17        -0.00          2.71670
              Cu 1 -- Cu 2                   0.93        -0.00          2.71670
              As 3 -- Yb 1                  -0.52        -0.00          2.90418
              As 4 -- Yb 2                  -0.52        -0.00          2.90418
              As 2 -- Yb 2                   0.29         0.00          2.99906
              As 1 -- Yb 2                   0.29         0.00          2.99906
              As 2 -- Yb 1                   0.29        -0.00          2.99906
              As 1 -- Yb 1                   0.29        -0.00          2.99906
================================================================================
 

Writing analysis data to YbCuAs2.castep_bin
 
 A BibTeX formatted list of references used in this run has been written to 
 YbCuAs2.bib
 
Initialisation time =     27.53 s
Calculation time    =   7690.87 s
Finalisation time   =      0.93 s
Total time          =   7719.33 s
Peak Memory Use     = 3122992 kB
